                         Program Version 4.2.1 -  RELEASE  -
|  1> # acetone OPT with B3LYP/cc-pVDZ
|  2>
|  3> ! B3LYP cc-pVDZ TightSCF Opt PAL16
|  4> %maxcore 1000
|  5>
|  6> * xyzfile 0 1 acetone.xyz
|  7>
|  8>
|  9>                          ****END OF INPUT****
 Total Charge           Charge          ....    0
 Multiplicity           Mult            ....    1
 Number of Electrons    NEL             ....   32
FINAL SINGLE POINT ENERGY      -193.041617509689
FINAL SINGLE POINT ENERGY      -193.045722787951
FINAL SINGLE POINT ENERGY      -193.046533272122
FINAL SINGLE POINT ENERGY      -193.046573093870
FINAL SINGLE POINT ENERGY      -193.046579215492
                    ***********************HURRAY********************

CARTESIAN COORDINATES (ANGSTROEM)
---------------------------------
  C      0.097099   -1.360958    0.711286
  C      0.097897   -0.255100   -0.330136
  C      1.328433   -0.160293   -1.216091
  O     -0.836780    0.511478   -0.449572
  H     -0.839020   -1.332516    1.285027
  H      0.205871   -2.346600    0.226724
  H      0.956124   -1.247328    1.395138
  H      1.479726   -1.104338   -1.767653
  H      2.232693   -0.003589   -0.603198
  H      1.213898    0.669335   -1.926665

 Multiplicity           Mult            ....    1
 Number of Electrons    NEL             ....   32
 Basis Dimension        Dim             ....   86

ORBITAL ENERGIES
----------------

  NO   OCC          E(Eh)            E(eV)
   0   2.0000     -19.125369      -520.4277
   1   2.0000     -10.272976      -279.5419
   2   2.0000     -10.191466      -277.3239
   3   2.0000     -10.191373      -277.3214
   4   2.0000      -1.036199       -28.1964
   5   2.0000      -0.764973       -20.8160
   6   2.0000      -0.706450       -19.2235
   7   2.0000      -0.528292       -14.3756
   8   2.0000      -0.455638       -12.3985
   9   2.0000      -0.454739       -12.3741
  10   2.0000      -0.445460       -12.1216
  11   2.0000      -0.398706       -10.8493
  12   2.0000      -0.390939       -10.6380
  13   2.0000      -0.375016       -10.2047
  14   2.0000      -0.345518        -9.4020
  15   2.0000      -0.242937        -6.6107
  16   0.0000      -0.010899        -0.2966
  17   0.0000       0.052195         1.4203
  18   0.0000       0.109100         2.9688
  19   0.0000       0.116126         3.1600
  20   0.0000       0.120629         3.2825

MULLIKEN ATOMIC CHARGES
-----------------------
   0 C :   -0.004057
   1 C :   -0.021826
   2 C :   -0.005097
   3 O :   -0.197406
   4 H :    0.035558
   5 H :    0.037835
   6 H :    0.040540
   7 H :    0.038887
   8 H :    0.038829
   9 H :    0.036737
Sum of atomic charges:   -0.0000000

LOEWDIN ATOMIC CHARGES
----------------------
   0 C :   -0.080581
   1 C :   -0.060582
   2 C :   -0.080875
   3 O :   -0.017267
   4 H :    0.036525
   5 H :    0.041234
   6 H :    0.041784
   7 H :    0.041507
   8 H :    0.041523
   9 H :    0.036732

  Mayer bond orders larger than 0.100000
B(  0-C ,  1-C ) :   1.0315 B(  0-C ,  4-H ) :   0.9582 B(  0-C ,  5-H ) :   0.9512
B(  0-C ,  6-H ) :   0.9516 B(  1-C ,  2-C ) :   1.0329 B(  1-C ,  3-O ) :   2.2234
B(  2-C ,  7-H ) :   0.9511 B(  2-C ,  8-H ) :   0.9509 B(  2-C ,  9-H ) :   0.9582

FINAL SINGLE POINT ENERGY      -193.046580174936

DIPOLE MOMENT
-------------
                                X             Y             Z
Electronic contribution:     -3.09895       2.54871      -0.39263
Nuclear contribution   :      3.92107      -3.22219       0.49836
                        -----------------------------------------
Total Dipole Moment    :      0.82212      -0.67347       0.10573
                        -----------------------------------------
Magnitude (a.u.)       :      1.06800
Magnitude (Debye)      :      2.71463

Rotational constants in cm-1:     0.336307     0.281952     0.162728
Rotational constants in MHz : 10082.227481  8452.698102  4878.477604

                             ****ORCA TERMINATED NORMALLY****
TOTAL RUN TIME: 0 days 0 hours 0 minutes 27 seconds 783 msec
