                         Program Version 4.2.1 -  RELEASE  -
|  1> # acetone CCSD(T)/aug-cc-pVTZ SPE
|  2>
|  3> ! CCSD(T) aug-cc-pVTZ TightSCF PAL8
|  4> %maxcore 2000
|  5>
|  6> * xyzfile 0 1 acetone_MP2_aug-cc-pVTZ_OPT.xyz
|  7>
|  8>
|  9>                          ****END OF INPUT****

CARTESIAN COORDINATES (ANGSTROEM)
---------------------------------
  C      0.102899   -1.357246    0.703875
  C      0.101304   -0.259029   -0.330422
  C      1.324607   -0.166171   -1.208353
  O     -0.836850    0.511284   -0.449993
  H     -0.820512   -1.333011    1.274331
  H      0.213734   -2.326245    0.215665
  H      0.956381   -1.235461    1.372003
  H      1.465350   -1.103400   -1.748173
  H      2.211979   -0.014612   -0.592532
  H      1.217048    0.653982   -1.911542

 Total Charge           Charge          ....    0
 Multiplicity           Mult            ....    1
 Number of Electrons    NEL             ....   32
 Basis Dimension        Dim             ....  322

ORBITAL ENERGIES
----------------

  NO   OCC          E(Eh)            E(eV)
   0   2.0000     -20.545211      -559.0636
   1   2.0000     -11.333237      -308.3931
   2   2.0000     -11.235387      -305.7304
   3   2.0000     -11.235366      -305.7299
   4   2.0000      -1.380864       -37.5752
   5   2.0000      -1.045774       -28.4570
   6   2.0000      -0.969532       -26.3823
   7   2.0000      -0.742361       -20.2007
   8   2.0000      -0.644524       -17.5384
   9   2.0000      -0.637395       -17.3444
  10   2.0000      -0.625371       -17.0172
  11   2.0000      -0.562385       -15.3033
  12   2.0000      -0.561632       -15.2828
  13   2.0000      -0.538906       -14.6644
  14   2.0000      -0.486436       -13.2366
  15   2.0000      -0.415121       -11.2960
  16   0.0000       0.025697         0.6993
  17   0.0000       0.036625         0.9966
  18   0.0000       0.039557         1.0764
  19   0.0000       0.049701         1.3524
  20   0.0000       0.061276         1.6674

E(0)                                       ...   -192.035802280
E(0)                                       ...   -192.035802280
E(CORR)                                    ...     -0.782714085
E(TOT)                                     ...   -192.818516365
E(CCSD(T))                                 ...   -192.851783491

MULLIKEN ATOMIC CHARGES
-----------------------
   0 C :   -0.842081
   1 C :    0.401934
   2 C :   -0.842085
   3 O :   -0.615203
   4 H :    0.296626
   5 H :    0.326130
   6 H :    0.325961
   7 H :    0.326046
   8 H :    0.326042
   9 H :    0.296630
Sum of atomic charges:   -0.0000000

LOEWDIN ATOMIC CHARGES
----------------------
   0 C :    0.550235
   1 C :   -0.550998
   2 C :    0.550237
   3 O :    0.497851
   4 H :   -0.181077
   5 H :   -0.171330
   6 H :   -0.171255
   7 H :   -0.171307
   8 H :   -0.171279
   9 H :   -0.181077

  Mayer bond orders larger than 0.100000
B(  0-C ,  1-C ) :   0.8512 B(  0-C ,  4-H ) :   0.8784 B(  0-C ,  5-H ) :   0.8326
B(  0-C ,  6-H ) :   0.8325 B(  1-C ,  2-C ) :   0.8512 B(  1-C ,  3-O ) :   1.3052
B(  2-C ,  7-H ) :   0.8326 B(  2-C ,  8-H ) :   0.8326 B(  2-C ,  9-H ) :   0.8784

FINAL SINGLE POINT ENERGY      -192.851783490504

DIPOLE MOMENT
-------------
                                X             Y             Z
Electronic contribution:     -3.03228       2.48867      -0.38721
Nuclear contribution   :      3.91043      -3.20949       0.49928
                        -----------------------------------------
Total Dipole Moment    :      0.87815      -0.72082       0.11207
                        -----------------------------------------
Magnitude (a.u.)       :      1.14162
Magnitude (Debye)      :      2.90176

Rotational constants in cm-1:     0.337089     0.287076     0.164424
Rotational constants in MHz : 10105.674786  8606.318847  4929.316729

                             ****ORCA TERMINATED NORMALLY****
TOTAL RUN TIME: 0 days 0 hours 25 minutes 10 seconds 260 msec
