                         Program Version 4.2.1 -  RELEASE  -
|  1> # acetone OPT with B3LYP/cc-pVTZ
|  2>
|  3> ! B3LYP cc-pVTZ TightSCF Opt PAL16
|  4> %maxcore 1000
|  5>
|  6> * xyzfile 0 1 acetone_B3LYP_cc-pVDZ_OPT.xyz
|  7>
|  8>
|  9>                          ****END OF INPUT****
 Total Charge           Charge          ....    0
 Multiplicity           Mult            ....    1
 Number of Electrons    NEL             ....   32
FINAL SINGLE POINT ENERGY      -193.114894275587
FINAL SINGLE POINT ENERGY      -193.115412838028
FINAL SINGLE POINT ENERGY      -193.115413750962
                    ***********************HURRAY********************

CARTESIAN COORDINATES (ANGSTROEM)
---------------------------------
  C      0.098670   -1.359367    0.708672
  C      0.100247   -0.258052   -0.330438
  C      1.326618   -0.162088   -1.213639
  O     -0.829391    0.506411   -0.448233
  H     -0.827492   -1.332764    1.277048
  H      0.207550   -2.334601    0.228331
  H      0.949010   -1.244282    1.385129
  H      1.474909   -1.096652   -1.759984
  H      2.220786   -0.007847   -0.605318
  H      1.215034    0.659333   -1.916708

 Multiplicity           Mult            ....    1
 Number of Electrons    NEL             ....   32
 Basis Dimension        Dim             ....  204

ORBITAL ENERGIES
----------------

  NO   OCC          E(Eh)            E(eV)
   0   2.0000     -19.114662      -520.1364
   1   2.0000     -10.264413      -279.3089
   2   2.0000     -10.177412      -276.9415
   3   2.0000     -10.177409      -276.9414
   4   2.0000      -1.043489       -28.3948
   5   2.0000      -0.771727       -20.9998
   6   2.0000      -0.713574       -19.4173
   7   2.0000      -0.534723       -14.5505
   8   2.0000      -0.463746       -12.6192
   9   2.0000      -0.463016       -12.5993
  10   2.0000      -0.453863       -12.3502
  11   2.0000      -0.406338       -11.0570
  12   2.0000      -0.399087       -10.8597
  13   2.0000      -0.382598       -10.4110
  14   2.0000      -0.354344        -9.6422
  15   2.0000      -0.251835        -6.8528
  16   0.0000      -0.017990        -0.4895
  17   0.0000       0.027863         0.7582
  18   0.0000       0.079956         2.1757
  19   0.0000       0.093826         2.5531
  20   0.0000       0.096876         2.6361

MULLIKEN ATOMIC CHARGES
-----------------------
   0 C :   -0.292994
   1 C :    0.219155
   2 C :   -0.295218
   3 O :   -0.259013
   4 H :    0.117581
   5 H :    0.095622
   6 H :    0.099537
   7 H :    0.100338
   8 H :    0.097188
   9 H :    0.117804
Sum of atomic charges:   -0.0000000

LOEWDIN ATOMIC CHARGES
----------------------
   0 C :    0.100965
   1 C :   -0.298147
   2 C :    0.100616
   3 O :    0.202033
   4 H :   -0.019195
   5 H :   -0.017009
   6 H :   -0.016701
   7 H :   -0.016563
   8 H :   -0.016701
   9 H :   -0.019298

  Mayer bond orders larger than 0.100000
B(  0-C ,  1-C ) :   0.9226 B(  0-C ,  4-H ) :   0.9699 B(  0-C ,  5-H ) :   0.9506
B(  0-C ,  6-H ) :   0.9526 B(  1-C ,  2-C ) :   0.9282 B(  1-C ,  3-O ) :   2.2176
B(  2-C ,  7-H ) :   0.9526 B(  2-C ,  8-H ) :   0.9502 B(  2-C ,  9-H ) :   0.9677

FINAL SINGLE POINT ENERGY      -193.115414946953

DIPOLE MOMENT
-------------
                                X             Y             Z
Electronic contribution:     -3.01803       2.47993      -0.38337
Nuclear contribution   :      3.89925      -3.20379       0.49610
                        -----------------------------------------
Total Dipole Moment    :      0.88122      -0.72386       0.11273
                        -----------------------------------------
Magnitude (a.u.)       :      1.14596
Magnitude (Debye)      :      2.91281

Rotational constants in cm-1:     0.339882     0.284003     0.164057
Rotational constants in MHz : 10189.397776  8514.210668  4918.310725

                             ****ORCA TERMINATED NORMALLY****
TOTAL RUN TIME: 0 days 0 hours 0 minutes 34 seconds 276 msec
