                         Program Version 4.2.1 -  RELEASE  -
|  1> # acetone DLPNO-CCSD/aug-cc-pVTZ SPE
|  2>
|  3> ! DLPNO-CCSD aug-cc-pVTZ aug-cc-pVTZ/C TightSCF PAL8
|  4> %maxcore 1000
|  5>
|  6> * xyzfile 0 1 acetone_MP2_aug-cc-pVTZ_OPT.xyz
|  7>
|  8>
|  9>                          ****END OF INPUT****

CARTESIAN COORDINATES (ANGSTROEM)
---------------------------------
  C      0.102899   -1.357246    0.703875
  C      0.101304   -0.259029   -0.330422
  C      1.324607   -0.166171   -1.208353
  O     -0.836850    0.511284   -0.449993
  H     -0.820512   -1.333011    1.274331
  H      0.213734   -2.326245    0.215665
  H      0.956381   -1.235461    1.372003
  H      1.465350   -1.103400   -1.748173
  H      2.211979   -0.014612   -0.592532
  H      1.217048    0.653982   -1.911542

 Total Charge           Charge          ....    0
 Multiplicity           Mult            ....    1
 Number of Electrons    NEL             ....   32
 Basis Dimension        Dim             ....  322

ORBITAL ENERGIES
----------------

  NO   OCC          E(Eh)            E(eV)
   0   2.0000     -20.545211      -559.0636
   1   2.0000     -11.333241      -308.3932
   2   2.0000     -11.235394      -305.7306
   3   2.0000     -11.235373      -305.7300
   4   2.0000      -1.380865       -37.5752
   5   2.0000      -1.045777       -28.4570
   6   2.0000      -0.969535       -26.3824
   7   2.0000      -0.742363       -20.2007
   8   2.0000      -0.644526       -17.5385
   9   2.0000      -0.637396       -17.3444
  10   2.0000      -0.625373       -17.0173
  11   2.0000      -0.562387       -15.3033
  12   2.0000      -0.561634       -15.2828
  13   2.0000      -0.538908       -14.6644
  14   2.0000      -0.486437       -13.2366
  15   2.0000      -0.415123       -11.2961
  16   0.0000       0.025697         0.6993
  17   0.0000       0.036625         0.9966
  18   0.0000       0.039556         1.0764
  19   0.0000       0.049701         1.3524
  20   0.0000       0.061276         1.6674

E(0)                                       ...   -192.035802280
E(0)                                       ...   -192.035802280
E(CORR)(strong-pairs)                      ...     -0.780995230
E(CORR)(weak-pairs)                        ...     -0.001606011
E(CORR)(corrected)                         ...     -0.782601241
E(TOT)                                     ...   -192.818403521

MULLIKEN ATOMIC CHARGES
-----------------------
   0 C :   -0.825424
   1 C :    0.382472
   2 C :   -0.825952
   3 O :   -0.642317
   4 H :    0.301781
   5 H :    0.327091
   6 H :    0.326596
   7 H :    0.326919
   8 H :    0.326874
   9 H :    0.301961
Sum of atomic charges:   -0.0000000

LOEWDIN ATOMIC CHARGES
----------------------
   0 C :    0.550821
   1 C :   -0.549065
   2 C :    0.550814
   3 O :    0.494310
   4 H :   -0.180772
   5 H :   -0.171373
   6 H :   -0.171288
   7 H :   -0.171347
   8 H :   -0.171321
   9 H :   -0.180779

  Mayer bond orders larger than 0.100000
B(  0-C ,  1-C ) :   0.8513 B(  0-C ,  4-H ) :   0.8717 B(  0-C ,  5-H ) :   0.8321
B(  0-C ,  6-H ) :   0.8321 B(  1-C ,  2-C ) :   0.8511 B(  1-C ,  3-O ) :   1.2177
B(  2-C ,  7-H ) :   0.8322 B(  2-C ,  8-H ) :   0.8322 B(  2-C ,  9-H ) :   0.8715

FINAL SINGLE POINT ENERGY      -192.818403520890

DIPOLE MOMENT
-------------
                                X             Y             Z
Electronic contribution:     -3.02734       2.48456      -0.38653
Nuclear contribution   :      3.91043      -3.20949       0.49928
                        -----------------------------------------
Total Dipole Moment    :      0.88309      -0.72493       0.11274
                        -----------------------------------------
Magnitude (a.u.)       :      1.14808
Magnitude (Debye)      :      2.91819

Rotational constants in cm-1:     0.337089     0.287076     0.164424
Rotational constants in MHz : 10105.674786  8606.318847  4929.316729

                             ****ORCA TERMINATED NORMALLY****
TOTAL RUN TIME: 0 days 0 hours 2 minutes 8 seconds 974 msec
