                         Program Version 4.2.1 -  RELEASE  -
|  1> # acetone MP2/aug-cc-pVTZ Optimization
|  2>
|  3> ! MP2 aug-cc-pVTZ TightSCF Opt PAL16
|  4> %maxcore 1000
|  5>
|  6> * xyzfile 0 1 acetone_B3LYP_cc-pVTZ_OPT.xyz
|  7>
|  8>
|  9>                          ****END OF INPUT****
 Total Charge           Charge          ....    0
 Multiplicity           Mult            ....    1
 Number of Electrons    NEL             ....   32
MP2 TOTAL ENERGY:     -192.789920694 Eh
FINAL SINGLE POINT ENERGY      -192.789920693560
MP2 TOTAL ENERGY:     -192.790116943 Eh
FINAL SINGLE POINT ENERGY      -192.790116943447
MP2 TOTAL ENERGY:     -192.790140784 Eh
FINAL SINGLE POINT ENERGY      -192.790140784406
MP2 TOTAL ENERGY:     -192.790141130 Eh
FINAL SINGLE POINT ENERGY      -192.790141129688
MP2 TOTAL ENERGY:     -192.790142663 Eh
FINAL SINGLE POINT ENERGY      -192.790142663231
                    ***********************HURRAY********************

CARTESIAN COORDINATES (ANGSTROEM)
---------------------------------
  C      0.102899   -1.357246    0.703875
  C      0.101304   -0.259029   -0.330422
  C      1.324607   -0.166171   -1.208353
  O     -0.836850    0.511284   -0.449993
  H     -0.820512   -1.333011    1.274331
  H      0.213734   -2.326245    0.215665
  H      0.956381   -1.235461    1.372003
  H      1.465350   -1.103400   -1.748173
  H      2.211979   -0.014612   -0.592532
  H      1.217048    0.653982   -1.911542

 Multiplicity           Mult            ....    1
 Number of Electrons    NEL             ....   32
 Basis Dimension        Dim             ....  322

ORBITAL ENERGIES
----------------

  NO   OCC          E(Eh)            E(eV)
   0   2.0000     -20.545215      -559.0637
   1   2.0000     -11.333235      -308.3930
   2   2.0000     -11.235386      -305.7304
   3   2.0000     -11.235365      -305.7298
   4   2.0000      -1.380865       -37.5752
   5   2.0000      -1.045773       -28.4569
   6   2.0000      -0.969532       -26.3823
   7   2.0000      -0.742361       -20.2007
   8   2.0000      -0.644524       -17.5384
   9   2.0000      -0.637395       -17.3444
  10   2.0000      -0.625370       -17.0172
  11   2.0000      -0.562385       -15.3033
  12   2.0000      -0.561632       -15.2828
  13   2.0000      -0.538906       -14.6644
  14   2.0000      -0.486436       -13.2366
  15   2.0000      -0.415122       -11.2960
  16   0.0000       0.025697         0.6993
  17   0.0000       0.036625         0.9966
  18   0.0000       0.039557         1.0764
  19   0.0000       0.049701         1.3524
  20   0.0000       0.061276         1.6674

MULLIKEN ATOMIC CHARGES
-----------------------
   0 C :   -0.839907
   1 C :    0.418132
   2 C :   -0.839910
   3 O :   -0.628305
   4 H :    0.296019
   5 H :    0.324576
   6 H :    0.324399
   7 H :    0.324487
   8 H :    0.324486
   9 H :    0.296023
Sum of atomic charges:   -0.0000000

LOEWDIN ATOMIC CHARGES
----------------------
   0 C :    0.555210
   1 C :   -0.548363
   2 C :    0.555212
   3 O :    0.492312
   4 H :   -0.182910
   5 H :   -0.172175
   6 H :   -0.172100
   7 H :   -0.172152
   8 H :   -0.172123
   9 H :   -0.182910

  Mayer bond orders larger than 0.100000
B(  0-C ,  1-C ) :   0.8705 B(  0-C ,  4-H ) :   0.8968 B(  0-C ,  5-H ) :   0.8513
B(  0-C ,  6-H ) :   0.8512 B(  1-C ,  2-C ) :   0.8705 B(  1-C ,  3-O ) :   1.3146
B(  2-C ,  7-H ) :   0.8512 B(  2-C ,  8-H ) :   0.8512 B(  2-C ,  9-H ) :   0.8968

MP2 TOTAL ENERGY:     -192.790142659 Eh
FINAL SINGLE POINT ENERGY      -192.790142658808

DIPOLE MOMENT
-------------
                                X             Y             Z
Electronic contribution:     -3.00791       2.46866      -0.38410
Nuclear contribution   :      3.91043      -3.20949       0.49928
                        -----------------------------------------
Total Dipole Moment    :      0.90252      -0.74083       0.11518
                        -----------------------------------------
Magnitude (a.u.)       :      1.17330
Magnitude (Debye)      :      2.98230

Rotational constants in cm-1:     0.337089     0.287076     0.164424
Rotational constants in MHz : 10105.674786  8606.318847  4929.316729

                             ****ORCA TERMINATED NORMALLY****
TOTAL RUN TIME: 0 days 0 hours 16 minutes 22 seconds 358 msec
