                         Program Version 4.2.1 -  RELEASE  -
|  1> # Ammonia SPE with CCSD/aug-cc-pVTZ
|  2>
|  3> ! CCSD aug-cc-pVTZ PAL4
|  4>
|  5> *xyzfile 0 1 ammonia_MP2_aug-cc-pVTZ_OPT.xyz
|  6>
|  7>                          ****END OF INPUT****

CARTESIAN COORDINATES (ANGSTROEM)
---------------------------------
  N     -0.009848   -0.013912    0.024102
  H     -0.325362   -0.460152   -0.827784
  H     -0.325366    0.946961   -0.015391
  H      1.001246    0.008883   -0.015398

 Total Charge           Charge          ....    0
 Multiplicity           Mult            ....    1
 Number of Electrons    NEL             ....   10
 Basis Dimension        Dim             ....  115

ORBITAL ENERGIES
----------------

  NO   OCC          E(Eh)            E(eV)
   0   2.0000     -15.541639      -422.9095
   1   2.0000      -1.142417       -31.0867
   2   2.0000      -0.628810       -17.1108
   3   2.0000      -0.628801       -17.1106
   4   2.0000      -0.429308       -11.6821
   5   0.0000       0.029544         0.8039
   6   0.0000       0.048681         1.3247
   7   0.0000       0.048681         1.3247
   8   0.0000       0.117877         3.2076
   9   0.0000       0.152443         4.1482

E(0)                                       ...    -56.220324325
E(0)                                       ...    -56.220324325
E(CORR)                                    ...     -0.251884948
E(TOT)                                     ...    -56.472209273

MULLIKEN ATOMIC CHARGES
-----------------------
   0 N :   -0.605403
   1 H :    0.201801
   2 H :    0.201801
   3 H :    0.201801
Sum of atomic charges:   -0.0000000

LOEWDIN ATOMIC CHARGES
----------------------
   0 N :    1.072672
   1 H :   -0.357557
   2 H :   -0.357558
   3 H :   -0.357557

  Mayer bond orders larger than 0.100000
B(  0-N ,  1-H ) :   0.9049 B(  0-N ,  2-H ) :   0.9049 B(  0-N ,  3-H ) :   0.9049

FINAL SINGLE POINT ENERGY       -56.472209273458

DIPOLE MOMENT
-------------
                                X             Y             Z
Electronic contribution:     -0.09523      -0.13464       0.23323
Nuclear contribution   :      0.29313       0.41450      -0.71796
                        -----------------------------------------
Total Dipole Moment    :      0.19790       0.27986      -0.48473
                        -----------------------------------------
Magnitude (a.u.)       :      0.59367
Magnitude (Debye)      :      1.50900

Rotational constants in cm-1:     9.976889     9.976555     6.335040
Rotational constants in MHz : 299099.614585 299089.593409 189919.734036

                             ****ORCA TERMINATED NORMALLY****
TOTAL RUN TIME: 0 days 0 hours 0 minutes 12 seconds 409 msec
