                         Program Version 4.2.1 -  RELEASE  -
|  1> # Ammoniar geom opt with B3LYP/cc-pVDZ
|  2>
|  3> ! B3LYP cc-pVDZ Opt PAL4
|  4>
|  5> *xyzfile 0 1 ammonia.xyz
|  6>
|  7>                          ****END OF INPUT****
 Total Charge           Charge          ....    0
 Multiplicity           Mult            ....    1
 Number of Electrons    NEL             ....   10
FINAL SINGLE POINT ENERGY       -56.517412924827
FINAL SINGLE POINT ENERGY       -56.517587693041
FINAL SINGLE POINT ENERGY       -56.517705289311
FINAL SINGLE POINT ENERGY       -56.517707192447
                    ***********************HURRAY********************

CARTESIAN COORDINATES (ANGSTROEM)
---------------------------------
  N     -0.020074   -0.028491    0.049486
  H     -0.320431   -0.452694   -0.834157
  H     -0.320465    0.948715   -0.025037
  H      1.001640    0.014249   -0.024763

 Multiplicity           Mult            ....    1
 Number of Electrons    NEL             ....   10
 Basis Dimension        Dim             ....   29

ORBITAL ENERGIES
----------------

  NO   OCC          E(Eh)            E(eV)
   0   2.0000     -14.299239      -389.1021
   1   2.0000      -0.838128       -22.8066
   2   2.0000      -0.440159       -11.9773
   3   2.0000      -0.439937       -11.9713
   4   2.0000      -0.252000        -6.8573
   5   0.0000       0.058800         1.6000
   6   0.0000       0.140853         3.8328
   7   0.0000       0.142181         3.8689
   8   0.0000       0.512315        13.9408
   9   0.0000       0.513422        13.9709

MULLIKEN ATOMIC CHARGES
-----------------------
   0 N :   -0.206600
   1 H :    0.068727
   2 H :    0.068531
   3 H :    0.069341
Sum of atomic charges:   -0.0000000

LOEWDIN ATOMIC CHARGES
----------------------
   0 N :   -0.121516
   1 H :    0.040479
   2 H :    0.040467
   3 H :    0.040570

  Mayer bond orders larger than 0.100000
B(  0-N ,  1-H ) :   1.0053 B(  0-N ,  2-H ) :   1.0064 B(  0-N ,  3-H ) :   1.0070

FINAL SINGLE POINT ENERGY       -56.517707165790

DIPOLE MOMENT
-------------
                                X             Y             Z
Electronic contribution:     -0.10294      -0.14594       0.25675
Nuclear contribution   :      0.32468       0.45948      -0.79627
                        -----------------------------------------
Total Dipole Moment    :      0.22173       0.31354      -0.53952
                        -----------------------------------------
Magnitude (a.u.)       :      0.66224
Magnitude (Debye)      :      1.68327

Rotational constants in cm-1:     9.570721     9.561635     6.382471
Rotational constants in MHz : 286922.988850 286650.619457 191341.669314

                             ****ORCA TERMINATED NORMALLY****
TOTAL RUN TIME: 0 days 0 hours 0 minutes 7 seconds 451 msec
