                         Program Version 4.2.1 -  RELEASE  -
|  1> # Ammonia geom opt with MP2/aug-cc-pVTZ
|  2>
|  3> ! MP2 aug-cc-pVTZ Opt PAL4
|  4>
|  5> *xyzfile 0 1 ammonia_B3LYP_cc-pVTZ_OPT.xyz
|  6>
|  7>                          ****END OF INPUT****
 Total Charge           Charge          ....    0
 Multiplicity           Mult            ....    1
 Number of Electrons    NEL             ....   10
MP2 TOTAL ENERGY:      -56.460531099 Eh
FINAL SINGLE POINT ENERGY       -56.460531099268
MP2 TOTAL ENERGY:      -56.460538730 Eh
FINAL SINGLE POINT ENERGY       -56.460538729542
MP2 TOTAL ENERGY:      -56.460540123 Eh
FINAL SINGLE POINT ENERGY       -56.460540123194
MP2 TOTAL ENERGY:      -56.460540920 Eh
FINAL SINGLE POINT ENERGY       -56.460540919586
                    ***********************HURRAY********************

CARTESIAN COORDINATES (ANGSTROEM)
---------------------------------
  N     -0.009848   -0.013912    0.024102
  H     -0.325362   -0.460152   -0.827784
  H     -0.325366    0.946961   -0.015391
  H      1.001246    0.008883   -0.015398

 Multiplicity           Mult            ....    1
 Number of Electrons    NEL             ....   10
 Basis Dimension        Dim             ....  115

ORBITAL ENERGIES
----------------

  NO   OCC          E(Eh)            E(eV)
   0   2.0000     -15.541727      -422.9119
   1   2.0000      -1.142448       -31.0876
   2   2.0000      -0.628835       -17.1115
   3   2.0000      -0.628827       -17.1112
   4   2.0000      -0.429334       -11.6828
   5   0.0000       0.029543         0.8039
   6   0.0000       0.048681         1.3247
   7   0.0000       0.048681         1.3247
   8   0.0000       0.117875         3.2075
   9   0.0000       0.152439         4.1481

MULLIKEN ATOMIC CHARGES
-----------------------
   0 N :   -0.605107
   1 H :    0.201703
   2 H :    0.201703
   3 H :    0.201702
Sum of atomic charges:   -0.0000000

LOEWDIN ATOMIC CHARGES
----------------------
   0 N :    1.076360
   1 H :   -0.358787
   2 H :   -0.358787
   3 H :   -0.358786

  Mayer bond orders larger than 0.100000
B(  0-N ,  1-H ) :   0.9183 B(  0-N ,  2-H ) :   0.9183 B(  0-N ,  3-H ) :   0.9183

MP2 TOTAL ENERGY:      -56.460540907 Eh
FINAL SINGLE POINT ENERGY       -56.460540906950

DIPOLE MOMENT
-------------
                                X             Y             Z
Electronic contribution:     -0.09388      -0.13273       0.22992
Nuclear contribution   :      0.29313       0.41450      -0.71796
                        -----------------------------------------
Total Dipole Moment    :      0.19925       0.28177      -0.48804
                        -----------------------------------------
Magnitude (a.u.)       :      0.59773
Magnitude (Debye)      :      1.51930

Rotational constants in cm-1:     9.976889     9.976555     6.335040
Rotational constants in MHz : 299099.614585 299089.593409 189919.734036

                             ****ORCA TERMINATED NORMALLY****
TOTAL RUN TIME: 0 days 0 hours 0 minutes 41 seconds 999 msec
