                         Program Version 4.2.1 -  RELEASE  -
|  1> # Ammonia geom opt with B3LYP/cc-pVTZ
|  2>
|  3> ! B3LYP cc-pVTZ Opt PAL4
|  4>
|  5> *xyzfile 0 1 ammonia_B3LYP_cc-pVDZ_OPT.xyz
|  6>
|  7>                          ****END OF INPUT****
 Total Charge           Charge          ....    0
 Multiplicity           Mult            ....    1
 Number of Electrons    NEL             ....   10
FINAL SINGLE POINT ENERGY       -56.547787817453
FINAL SINGLE POINT ENERGY       -56.548068553110
FINAL SINGLE POINT ENERGY       -56.548170218387
FINAL SINGLE POINT ENERGY       -56.548194446861
FINAL SINGLE POINT ENERGY       -56.548194950829
                    ***********************HURRAY********************

CARTESIAN COORDINATES (ANGSTROEM)
---------------------------------
  N     -0.010960   -0.015604    0.027095
  H     -0.325201   -0.459510   -0.828847
  H     -0.325075    0.947440   -0.016477
  H      1.001905    0.009453   -0.016241

 Multiplicity           Mult            ....    1
 Number of Electrons    NEL             ....   10
 Basis Dimension        Dim             ....   72

ORBITAL ENERGIES
----------------

  NO   OCC          E(Eh)            E(eV)
   0   2.0000     -14.286041      -388.7429
   1   2.0000      -0.846930       -23.0461
   2   2.0000      -0.455836       -12.4039
   3   2.0000      -0.455695       -12.4001
   4   2.0000      -0.262431        -7.1411
   5   0.0000       0.032130         0.8743
   6   0.0000       0.112330         3.0566
   7   0.0000       0.113833         3.0976
   8   0.0000       0.321829         8.7574
   9   0.0000       0.324667         8.8346

MULLIKEN ATOMIC CHARGES
-----------------------
   0 N :   -0.470510
   1 H :    0.158721
   2 H :    0.154832
   3 H :    0.156957
Sum of atomic charges:   -0.0000000

LOEWDIN ATOMIC CHARGES
----------------------
   0 N :    0.311769
   1 H :   -0.103844
   2 H :   -0.103821
   3 H :   -0.104105

  Mayer bond orders larger than 0.100000
B(  0-N ,  1-H ) :   0.9897 B(  0-N ,  2-H ) :   0.9908 B(  0-N ,  3-H ) :   0.9903

FINAL SINGLE POINT ENERGY       -56.548194956566

DIPOLE MOMENT
-------------
                                X             Y             Z
Electronic contribution:     -0.08963      -0.12498       0.22168
Nuclear contribution   :      0.29656       0.41972      -0.72719
                        -----------------------------------------
Total Dipole Moment    :      0.20693       0.29474      -0.50552
                        -----------------------------------------
Magnitude (a.u.)       :      0.62067
Magnitude (Debye)      :      1.57763

Rotational constants in cm-1:     9.924478     9.917584     6.333501
Rotational constants in MHz : 297528.372560 297321.692192 189873.589953

                             ****ORCA TERMINATED NORMALLY****
TOTAL RUN TIME: 0 days 0 hours 0 minutes 12 seconds 353 msec
