                         Program Version 4.2.1 -  RELEASE  -
|  1> # carbon_monoxide OPT with B3LYP/cc-pVDZ
|  2>
|  3> ! B3LYP cc-pVDZ TightSCF Opt PAL4
|  4>
|  5> * xyzfile 0 1 carbon_monoxide.xyz
|  6>
|  7>
|  8>                          ****END OF INPUT****
 Total Charge           Charge          ....    0
 Multiplicity           Mult            ....    1
 Number of Electrons    NEL             ....   14
FINAL SINGLE POINT ENERGY      -113.109150172106
FINAL SINGLE POINT ENERGY      -113.189032745470
FINAL SINGLE POINT ENERGY      -113.254964521145
FINAL SINGLE POINT ENERGY      -113.255745727183
FINAL SINGLE POINT ENERGY      -113.268326156831
FINAL SINGLE POINT ENERGY      -113.269066375339
FINAL SINGLE POINT ENERGY      -113.269109424617
FINAL SINGLE POINT ENERGY      -113.269109644451
                    ***********************HURRAY********************

CARTESIAN COORDINATES (ANGSTROEM)
---------------------------------
  C    -27.880672   12.166670    0.000000
  O    -26.745988   12.166670    0.000000

 Multiplicity           Mult            ....    1
 Number of Electrons    NEL             ....   14
 Basis Dimension        Dim             ....   28

ORBITAL ENERGIES
----------------

  NO   OCC          E(Eh)            E(eV)
   0   2.0000     -19.245550      -523.6980
   1   2.0000     -10.300431      -280.2890
   2   2.0000      -1.159682       -31.5566
   3   2.0000      -0.570583       -15.5263
   4   2.0000      -0.467512       -12.7216
   5   2.0000      -0.467512       -12.7216
   6   2.0000      -0.370076       -10.0703
   7   0.0000      -0.020935        -0.5697
   8   0.0000      -0.020935        -0.5697
   9   0.0000       0.245062         6.6685
  10   0.0000       0.458919        12.4878
  11   0.0000       0.458919        12.4878

MULLIKEN ATOMIC CHARGES
-----------------------
   0 C :   -0.013520
   1 O :    0.013520
Sum of atomic charges:    0.0000000

LOEWDIN ATOMIC CHARGES
----------------------
   0 C :   -0.166392
   1 O :    0.166392

  Mayer bond orders larger than 0.100000
B(  0-C ,  1-O ) :   2.6218

FINAL SINGLE POINT ENERGY      -113.269109644398

DIPOLE MOMENT
-------------
                                X             Y             Z
Electronic contribution:      0.06415      -0.00000      -0.00000
Nuclear contribution   :      0.00720       0.00000       0.00000
                        -----------------------------------------
Total Dipole Moment    :      0.07134      -0.00000      -0.00000
                        -----------------------------------------
Magnitude (a.u.)       :      0.07134
Magnitude (Debye)      :      0.18134

Rotational constants in cm-1:     0.000000     1.908483     1.908483
Rotational constants in MHz :     0.000000 57214.875976 57214.875976

                             ****ORCA TERMINATED NORMALLY****
TOTAL RUN TIME: 0 days 0 hours 0 minutes 15 seconds 787 msec
