                         Program Version 4.2.1 -  RELEASE  -
|  1> # carbon_monoxide MP2/aug-cc-pVTZ Optimization
|  2>
|  3> ! MP2 aug-cc-pVTZ TightSCF Opt PAL4
|  4>
|  5> * xyzfile 0 1 carbon_monoxide_B3LYP_cc-pVTZ_OPT.xyz
|  6>
|  7>
|  8>                          ****END OF INPUT****
 Total Charge           Charge          ....    0
 Multiplicity           Mult            ....    1
 Number of Electrons    NEL             ....   14
MP2 TOTAL ENERGY:     -113.142071501 Eh
FINAL SINGLE POINT ENERGY      -113.142071501021
MP2 TOTAL ENERGY:     -113.142400308 Eh
FINAL SINGLE POINT ENERGY      -113.142400308405
MP2 TOTAL ENERGY:     -113.142411143 Eh
FINAL SINGLE POINT ENERGY      -113.142411143030
                    ***********************HURRAY********************

CARTESIAN COORDINATES (ANGSTROEM)
---------------------------------
  C    -27.882808   12.166670    0.000000
  O    -26.743852   12.166670    0.000000

 Multiplicity           Mult            ....    1
 Number of Electrons    NEL             ....   14
 Basis Dimension        Dim             ....   92

ORBITAL ENERGIES
----------------

  NO   OCC          E(Eh)            E(eV)
   0   2.0000     -20.668607      -562.4214
   1   2.0000     -11.366730      -309.3044
   2   2.0000      -1.515676       -41.2436
   3   2.0000      -0.803995       -21.8778
   4   2.0000      -0.635894       -17.3036
   5   2.0000      -0.635894       -17.3036
   6   2.0000      -0.556152       -15.1337
   7   0.0000       0.069452         1.8899
   8   0.0000       0.069711         1.8969
   9   0.0000       0.069711         1.8969
  10   0.0000       0.087602         2.3838
  11   0.0000       0.150999         4.1089

MULLIKEN ATOMIC CHARGES
-----------------------
   0 C :    0.022325
   1 O :   -0.022325
Sum of atomic charges:    0.0000000

LOEWDIN ATOMIC CHARGES
----------------------
   0 C :   -0.182686
   1 O :    0.182686

  Mayer bond orders larger than 0.100000
B(  0-C ,  1-O ) :   2.2009

MP2 TOTAL ENERGY:     -113.142411133 Eh
FINAL SINGLE POINT ENERGY      -113.142411133427

DIPOLE MOMENT
-------------
                                X             Y             Z
Electronic contribution:      0.09264       0.00000      -0.00000
Nuclear contribution   :      0.00722       0.00000       0.00000
                        -----------------------------------------
Total Dipole Moment    :      0.09986       0.00000      -0.00000
                        -----------------------------------------
Magnitude (a.u.)       :      0.09986
Magnitude (Debye)      :      0.25382

Rotational constants in cm-1:     0.000000     1.894193     1.894193
Rotational constants in MHz :     0.000000 56786.477942 56786.477942

                             ****ORCA TERMINATED NORMALLY****
TOTAL RUN TIME: 0 days 0 hours 0 minutes 25 seconds 57 msec
