                         Program Version 4.2.1 -  RELEASE  -
|  1> # carbon_monoxide DLPNO-CCSD(T)/aug-cc-pVTZ SPE
|  2>
|  3> ! DLPNO-CCSD(T) aug-cc-pVTZ aug-cc-pVTZ/C TightSCF PAL4
|  4>
|  5> * xyzfile 0 1 carbon_monoxide_MP2_aug-cc-pVTZ_OPT.xyz
|  6>
|  7>
|  8>                          ****END OF INPUT****

CARTESIAN COORDINATES (ANGSTROEM)
---------------------------------
  C    -27.882808   12.166670    0.000000
  O    -26.743852   12.166670    0.000000

 Total Charge           Charge          ....    0
 Multiplicity           Mult            ....    1
 Number of Electrons    NEL             ....   14
 Basis Dimension        Dim             ....   92

ORBITAL ENERGIES
----------------

  NO   OCC          E(Eh)            E(eV)
   0   2.0000     -20.668606      -562.4214
   1   2.0000     -11.366728      -309.3044
   2   2.0000      -1.515675       -41.2436
   3   2.0000      -0.803996       -21.8778
   4   2.0000      -0.635893       -17.3035
   5   2.0000      -0.635893       -17.3035
   6   2.0000      -0.556152       -15.1337
   7   0.0000       0.069452         1.8899
   8   0.0000       0.069712         1.8970
   9   0.0000       0.069712         1.8970
  10   0.0000       0.087602         2.3838
  11   0.0000       0.151000         4.1089

MULLIKEN ATOMIC CHARGES
-----------------------
   0 C :    0.147456
   1 O :   -0.147456
Sum of atomic charges:    0.0000000

LOEWDIN ATOMIC CHARGES
----------------------
   0 C :   -0.145518
   1 O :    0.145518

  Mayer bond orders larger than 0.100000
B(  0-C ,  1-O ) :   2.3221

E(0)                                       ...   -112.779889249
E(0)                                       ...   -112.779889249
E(CORR)(strong-pairs)                      ...     -0.364301045
E(CORR)(weak-pairs)                        ...     -0.000220539
E(CORR)(corrected)                         ...     -0.364521584
E(TOT)                                     ...   -113.144410833
E(CCSD(T))                                 ...   -113.161130736
FINAL SINGLE POINT ENERGY      -113.161130736282

DIPOLE MOMENT
-------------
                                X             Y             Z
Electronic contribution:     -0.13321       0.00000       0.00000
Nuclear contribution   :      0.00722       0.00000       0.00000
                        -----------------------------------------
Total Dipole Moment    :     -0.12598       0.00000       0.00000
                        -----------------------------------------
Magnitude (a.u.)       :      0.12598
Magnitude (Debye)      :      0.32022

Rotational constants in cm-1:     0.000000     1.894193     1.894193
Rotational constants in MHz :     0.000000 56786.477942 56786.477942

                             ****ORCA TERMINATED NORMALLY****
TOTAL RUN TIME: 0 days 0 hours 0 minutes 20 seconds 35 msec
