                         Program Version 4.2.1 -  RELEASE  -
|  1> # carbon_monoxide CCSD/aug-cc-pVTZ SPE
|  2>
|  3> ! CCSD aug-cc-pVTZ TightSCF PAL4
|  4>
|  5> * xyzfile 0 1 carbon_monoxide_MP2_aug-cc-pVTZ_OPT.xyz
|  6>
|  7>
|  8>                          ****END OF INPUT****

CARTESIAN COORDINATES (ANGSTROEM)
---------------------------------
  C    -27.882808   12.166670    0.000000
  O    -26.743852   12.166670    0.000000

 Total Charge           Charge          ....    0
 Multiplicity           Mult            ....    1
 Number of Electrons    NEL             ....   14
 Basis Dimension        Dim             ....   92

ORBITAL ENERGIES
----------------

  NO   OCC          E(Eh)            E(eV)
   0   2.0000     -20.668606      -562.4214
   1   2.0000     -11.366728      -309.3044
   2   2.0000      -1.515675       -41.2436
   3   2.0000      -0.803996       -21.8778
   4   2.0000      -0.635893       -17.3035
   5   2.0000      -0.635893       -17.3035
   6   2.0000      -0.556152       -15.1337
   7   0.0000       0.069452         1.8899
   8   0.0000       0.069712         1.8970
   9   0.0000       0.069712         1.8970
  10   0.0000       0.087602         2.3838
  11   0.0000       0.151000         4.1089

E(0)                                       ...   -112.779889249
E(0)                                       ...   -112.779889249
E(CORR)                                    ...     -0.364400473
E(TOT)                                     ...   -113.144289723

MULLIKEN ATOMIC CHARGES
-----------------------
   0 C :    0.014217
   1 O :   -0.014217
Sum of atomic charges:    0.0000000

LOEWDIN ATOMIC CHARGES
----------------------
   0 C :   -0.189175
   1 O :    0.189175

  Mayer bond orders larger than 0.100000
B(  0-C ,  1-O ) :   2.1987

FINAL SINGLE POINT ENERGY      -113.144289722829

DIPOLE MOMENT
-------------
                                X             Y             Z
Electronic contribution:      0.08984       0.00000       0.00000
Nuclear contribution   :      0.00722       0.00000       0.00000
                        -----------------------------------------
Total Dipole Moment    :      0.09707       0.00000       0.00000
                        -----------------------------------------
Magnitude (a.u.)       :      0.09707
Magnitude (Debye)      :      0.24673

Rotational constants in cm-1:     0.000000     1.894193     1.894193
Rotational constants in MHz :     0.000000 56786.477942 56786.477942

                             ****ORCA TERMINATED NORMALLY****
TOTAL RUN TIME: 0 days 0 hours 0 minutes 8 seconds 681 msec
