                         Program Version 4.2.1 -  RELEASE  -
|  1> # carbon_monoxide OPT with B3LYP/cc-pVTZ
|  2>
|  3> ! B3LYP cc-pVTZ TightSCF Opt PAL4
|  4>
|  5> * xyzfile 0 1 carbon_monoxide_B3LYP_cc-pVDZ_OPT.xyz
|  6>
|  7>
|  8>                          ****END OF INPUT****
 Total Charge           Charge          ....    0
 Multiplicity           Mult            ....    1
 Number of Electrons    NEL             ....   14
FINAL SINGLE POINT ENERGY      -113.304862453915
FINAL SINGLE POINT ENERGY      -113.305014589438
FINAL SINGLE POINT ENERGY      -113.305017752767
                    ***********************HURRAY********************

CARTESIAN COORDINATES (ANGSTROEM)
---------------------------------
  C    -27.876489   12.166670    0.000000
  O    -26.750171   12.166670    0.000000

 Multiplicity           Mult            ....    1
 Number of Electrons    NEL             ....   14
 Basis Dimension        Dim             ....   60

ORBITAL ENERGIES
----------------

  NO   OCC          E(Eh)            E(eV)
   0   2.0000     -19.235542      -523.4257
   1   2.0000     -10.290317      -280.0138
   2   2.0000      -1.168194       -31.7882
   3   2.0000      -0.578450       -15.7404
   4   2.0000      -0.479327       -13.0432
   5   2.0000      -0.479327       -13.0432
   6   2.0000      -0.380096       -10.3429
   7   0.0000      -0.029791        -0.8107
   8   0.0000      -0.029791        -0.8107
   9   0.0000       0.160257         4.3608
  10   0.0000       0.290279         7.8989
  11   0.0000       0.290279         7.8989

MULLIKEN ATOMIC CHARGES
-----------------------
   0 C :   -0.027640
   1 O :    0.027640
Sum of atomic charges:    0.0000000

LOEWDIN ATOMIC CHARGES
----------------------
   0 C :   -0.333590
   1 O :    0.333590

  Mayer bond orders larger than 0.100000
B(  0-C ,  1-O ) :   2.5363

FINAL SINGLE POINT ENERGY      -113.305017754256

DIPOLE MOMENT
-------------
                                X             Y             Z
Electronic contribution:      0.04243      -0.00000      -0.00000
Nuclear contribution   :      0.00714       0.00000       0.00000
                        -----------------------------------------
Total Dipole Moment    :      0.04957      -0.00000      -0.00000
                        -----------------------------------------
Magnitude (a.u.)       :      0.04957
Magnitude (Debye)      :      0.12600

Rotational constants in cm-1:     0.000000     1.936939     1.936939
Rotational constants in MHz :     0.000000 58067.969779 58067.969779

                             ****ORCA TERMINATED NORMALLY****
TOTAL RUN TIME: 0 days 0 hours 0 minutes 8 seconds 827 msec
