                         Program Version 4.2.1 -  RELEASE  -
|  1> # furan MP2/aug-cc-pVTZ Optimization
|  2>
|  3> ! MP2 aug-cc-pVTZ TightSCF Opt PAL16
|  4> %maxcore 1000
|  5>
|  6> * xyzfile 0 1 furan_B3LYP_cc-pVTZ_OPT.xyz
|  7>
|  8>
|  9>                          ****END OF INPUT****
 Total Charge           Charge          ....    0
 Multiplicity           Mult            ....    1
 Number of Electrons    NEL             ....   36
MP2 TOTAL ENERGY:     -229.592547897 Eh
FINAL SINGLE POINT ENERGY      -229.592547896961
MP2 TOTAL ENERGY:     -229.592714451 Eh
FINAL SINGLE POINT ENERGY      -229.592714450821
MP2 TOTAL ENERGY:     -229.592739500 Eh
FINAL SINGLE POINT ENERGY      -229.592739499764
MP2 TOTAL ENERGY:     -229.592742757 Eh
FINAL SINGLE POINT ENERGY      -229.592742756969
                    ***********************HURRAY********************

CARTESIAN COORDINATES (ANGSTROEM)
---------------------------------
  C     -0.403573    1.310882   -0.000000
  O      0.011033    0.015672   -0.000000
  C      1.370812    0.036554    0.000000
  C      0.669567    2.154621    0.000000
  C      1.827529    1.322987   -0.000000
  H     -1.467964    1.461561   -0.000000
  H      1.853660   -0.923910    0.000000
  H      0.631230    3.229993    0.000001
  H      2.858805    1.630180   -0.000001

 Multiplicity           Mult            ....    1
 Number of Electrons    NEL             ....   36
 Basis Dimension        Dim             ....  322

ORBITAL ENERGIES
----------------

  NO   OCC          E(Eh)            E(eV)
   0   2.0000     -20.626152      -561.2661
   1   2.0000     -11.289280      -307.1969
   2   2.0000     -11.289234      -307.1957
   3   2.0000     -11.232367      -305.6483
   4   2.0000     -11.231354      -305.6207
   5   2.0000      -1.460373       -39.7388
   6   2.0000      -1.084960       -29.5232
   7   2.0000      -1.003973       -27.3195
   8   2.0000      -0.807599       -21.9759
   9   2.0000      -0.782724       -21.2990
  10   2.0000      -0.740632       -20.1536
  11   2.0000      -0.634601       -17.2684
  12   2.0000      -0.611052       -16.6276
  13   2.0000      -0.575424       -15.6581
  14   2.0000      -0.568415       -15.4674
  15   2.0000      -0.541094       -14.7239
  16   2.0000      -0.399170       -10.8620
  17   2.0000      -0.318471        -8.6660
  18   0.0000       0.029657         0.8070
  19   0.0000       0.035232         0.9587
  20   0.0000       0.038135         1.0377
  21   0.0000       0.048803         1.3280
  22   0.0000       0.081377         2.2144

MULLIKEN ATOMIC CHARGES
-----------------------
   0 C :   -0.557270
   1 O :   -0.188548
   2 C :   -0.557266
   3 C :   -0.523218
   4 C :   -0.523223
   5 H :    0.696894
   6 H :    0.696895
   7 H :    0.477865
   8 H :    0.477871
Sum of atomic charges:   -0.0000000

LOEWDIN ATOMIC CHARGES
----------------------
   0 C :   -0.049207
   1 O :    0.580666
   2 C :   -0.049227
   3 C :    0.149984
   4 C :    0.149977
   5 H :   -0.198050
   6 H :   -0.198047
   7 H :   -0.193048
   8 H :   -0.193046

  Mayer bond orders larger than 0.100000
B(  0-C ,  1-O ) :   1.0175 B(  0-C ,  3-C ) :   1.1506 B(  0-C ,  5-H ) :   0.4231
B(  1-O ,  2-C ) :   1.0175 B(  2-C ,  4-C ) :   1.1506 B(  2-C ,  6-H ) :   0.4231
B(  3-C ,  4-C ) :   1.1560 B(  3-C ,  7-H ) :   0.8078 B(  4-C ,  8-H ) :   0.8078

MP2 TOTAL ENERGY:     -229.592743901 Eh
FINAL SINGLE POINT ENERGY      -229.592743900957

DIPOLE MOMENT
-------------
                                X             Y             Z
Electronic contribution:     -0.96360      -1.34169      -0.00000
Nuclear contribution   :      1.10746       1.54200       0.00000
                        -----------------------------------------
Total Dipole Moment    :      0.14386       0.20031       0.00000
                        -----------------------------------------
Magnitude (a.u.)       :      0.24662
Magnitude (Debye)      :      0.62686

Rotational constants in cm-1:     0.317553     0.308215     0.156407
Rotational constants in MHz :  9520.004856  9240.043848  4688.967693

                             ****ORCA TERMINATED NORMALLY****
TOTAL RUN TIME: 0 days 0 hours 13 minutes 24 seconds 720 msec
