                         Program Version 4.2.1 -  RELEASE  -
|  1> # furan OPT with B3LYP/cc-pVDZ
|  2>
|  3> ! B3LYP cc-pVDZ TightSCF Opt PAL16
|  4> %maxcore 1000
|  5>
|  6> * xyzfile 0 1 furan.xyz
|  7>
|  8>
|  9>                          ****END OF INPUT****
 Total Charge           Charge          ....    0
 Multiplicity           Mult            ....    1
 Number of Electrons    NEL             ....   36
FINAL SINGLE POINT ENERGY      -229.883140154832
FINAL SINGLE POINT ENERGY      -229.900432194110
FINAL SINGLE POINT ENERGY      -229.902704716755
FINAL SINGLE POINT ENERGY      -229.903707444778
FINAL SINGLE POINT ENERGY      -229.903838594836
FINAL SINGLE POINT ENERGY      -229.903873247800
FINAL SINGLE POINT ENERGY      -229.903876814834
                    ***********************HURRAY********************

CARTESIAN COORDINATES (ANGSTROEM)
---------------------------------
  C     -0.406547    1.311879    0.000000
  O      0.008649    0.012499    0.000000
  C      1.372716    0.033762   -0.000000
  C      0.664162    2.157427   -0.000000
  C      1.832017    1.318779    0.000000
  H     -1.482062    1.463383    0.000000
  H      1.859982   -0.936615   -0.000000
  H      0.629327    3.244484   -0.000000
  H      2.872856    1.632942    0.000000

 Multiplicity           Mult            ....    1
 Number of Electrons    NEL             ....   36
 Basis Dimension        Dim             ....   90

ORBITAL ENERGIES
----------------

  NO   OCC          E(Eh)            E(eV)
   0   2.0000     -19.202957      -522.5390
   1   2.0000     -10.230628      -278.3895
   2   2.0000     -10.230586      -278.3884
   3   2.0000     -10.184109      -277.1237
   4   2.0000     -10.183778      -277.1147
   5   2.0000      -1.106019       -30.0963
   6   2.0000      -0.794077       -21.6079
   7   2.0000      -0.740004       -20.1365
   8   2.0000      -0.593253       -16.1432
   9   2.0000      -0.563511       -15.3339
  10   2.0000      -0.534609       -14.5475
  11   2.0000      -0.443734       -12.0746
  12   2.0000      -0.439697       -11.9648
  13   2.0000      -0.405521       -11.0348
  14   2.0000      -0.393138       -10.6978
  15   2.0000      -0.367502       -10.0002
  16   2.0000      -0.275432        -7.4949
  17   2.0000      -0.226754        -6.1703
  18   0.0000       0.014029         0.3817
  19   0.0000       0.069775         1.8987
  20   0.0000       0.081692         2.2230
  21   0.0000       0.110887         3.0174
  22   0.0000       0.111054         3.0219

MULLIKEN ATOMIC CHARGES
-----------------------
   0 C :    0.120769
   1 O :   -0.163907
   2 C :    0.122530
   3 C :   -0.017958
   4 C :   -0.013229
   5 H :   -0.001719
   6 H :   -0.002501
   7 H :   -0.020531
   8 H :   -0.023454
Sum of atomic charges:   -0.0000000

LOEWDIN ATOMIC CHARGES
----------------------
   0 C :   -0.050884
   1 O :    0.169097
   2 C :   -0.050254
   3 C :   -0.077727
   4 C :   -0.076738
   5 H :    0.017950
   6 H :    0.017863
   7 H :    0.025529
   8 H :    0.025166

  Mayer bond orders larger than 0.100000
B(  0-C ,  1-O ) :   1.1699 B(  0-C ,  3-C ) :   1.6177 B(  0-C ,  5-H ) :   0.9829
B(  1-O ,  2-C ) :   1.1678 B(  2-C ,  4-C ) :   1.6194 B(  2-C ,  6-H ) :   0.9824
B(  3-C ,  4-C ) :   1.2986 B(  3-C ,  7-H ) :   0.9700 B(  4-C ,  8-H ) :   0.9710

FINAL SINGLE POINT ENERGY      -229.903877412428

DIPOLE MOMENT
-------------
                                X             Y             Z
Electronic contribution:     -0.99511      -1.39140       0.00000
Nuclear contribution   :      1.11472       1.55251      -0.00000
                        -----------------------------------------
Total Dipole Moment    :      0.11960       0.16111      -0.00000
                        -----------------------------------------
Magnitude (a.u.)       :      0.20065
Magnitude (Debye)      :      0.51001

Rotational constants in cm-1:     0.314418     0.306975     0.155326
Rotational constants in MHz :  9426.024436  9202.877565  4656.557257

                             ****ORCA TERMINATED NORMALLY****
TOTAL RUN TIME: 0 days 0 hours 0 minutes 34 seconds 739 msec
