                         Program Version 4.2.1 -  RELEASE  -
|  1> # furan CCSD(T)/aug-cc-pVTZ SPE
|  2>
|  3> ! CCSD(T) aug-cc-pVTZ TightSCF PAL8
|  4> %maxcore 2000
|  5>
|  6> * xyzfile 0 1 furan_MP2_aug-cc-pVTZ_OPT.xyz
|  7>
|  8>
|  9>                          ****END OF INPUT****

CARTESIAN COORDINATES (ANGSTROEM)
---------------------------------
  C     -0.403573    1.310882   -0.000000
  O      0.011033    0.015672   -0.000000
  C      1.370812    0.036554    0.000000
  C      0.669567    2.154621    0.000000
  C      1.827529    1.322987   -0.000000
  H     -1.467964    1.461561   -0.000000
  H      1.853660   -0.923910    0.000000
  H      0.631230    3.229993    0.000001
  H      2.858805    1.630180   -0.000001

 Total Charge           Charge          ....    0
 Multiplicity           Mult            ....    1
 Number of Electrons    NEL             ....   36
 Basis Dimension        Dim             ....  322

ORBITAL ENERGIES
----------------

  NO   OCC          E(Eh)            E(eV)
   0   2.0000     -20.626155      -561.2662
   1   2.0000     -11.289282      -307.1970
   2   2.0000     -11.289236      -307.1957
   3   2.0000     -11.232367      -305.6482
   4   2.0000     -11.231354      -305.6207
   5   2.0000      -1.460375       -39.7388
   6   2.0000      -1.084960       -29.5233
   7   2.0000      -1.003974       -27.3195
   8   2.0000      -0.807600       -21.9759
   9   2.0000      -0.782724       -21.2990
  10   2.0000      -0.740633       -20.1537
  11   2.0000      -0.634602       -17.2684
  12   2.0000      -0.611053       -16.6276
  13   2.0000      -0.575425       -15.6581
  14   2.0000      -0.568416       -15.4674
  15   2.0000      -0.541095       -14.7239
  16   2.0000      -0.399170       -10.8620
  17   2.0000      -0.318472        -8.6661
  18   0.0000       0.029657         0.8070
  19   0.0000       0.035232         0.9587
  20   0.0000       0.038135         1.0377
  21   0.0000       0.048803         1.3280
  22   0.0000       0.081377         2.2144

E(0)                                       ...   -228.709016422
E(0)                                       ...   -228.709016422
E(CORR)                                    ...     -0.895993271
E(TOT)                                     ...   -229.605009693
E(CCSD(T))                                 ...   -229.651048794

MULLIKEN ATOMIC CHARGES
-----------------------
   0 C :   -0.562818
   1 O :   -0.180826
   2 C :   -0.562813
   3 C :   -0.523843
   4 C :   -0.523850
   5 H :    0.698798
   6 H :    0.698799
   7 H :    0.478273
   8 H :    0.478280
Sum of atomic charges:    0.0000000

LOEWDIN ATOMIC CHARGES
----------------------
   0 C :   -0.049578
   1 O :    0.581262
   2 C :   -0.049597
   3 C :    0.148452
   4 C :    0.148446
   5 H :   -0.196224
   6 H :   -0.196221
   7 H :   -0.193270
   8 H :   -0.193269

  Mayer bond orders larger than 0.100000
B(  0-C ,  1-O ) :   1.0113 B(  0-C ,  3-C ) :   1.1593 B(  0-C ,  5-H ) :   0.4077
B(  1-O ,  2-C ) :   1.0113 B(  2-C ,  4-C ) :   1.1593 B(  2-C ,  6-H ) :   0.4077
B(  3-C ,  4-C ) :   1.1200 B(  3-C ,  7-H ) :   0.7932 B(  4-C ,  8-H ) :   0.7932

FINAL SINGLE POINT ENERGY      -229.651048794055

DIPOLE MOMENT
-------------
                                X             Y             Z
Electronic contribution:     -0.97352      -1.35550      -0.00000
Nuclear contribution   :      1.10746       1.54200       0.00000
                        -----------------------------------------
Total Dipole Moment    :      0.13394       0.18649       0.00000
                        -----------------------------------------
Magnitude (a.u.)       :      0.22961
Magnitude (Debye)      :      0.58361

Rotational constants in cm-1:     0.317553     0.308215     0.156407
Rotational constants in MHz :  9520.004856  9240.043848  4688.967693

                             ****ORCA TERMINATED NORMALLY****
TOTAL RUN TIME: 0 days 0 hours 28 minutes 50 seconds 416 msec
