                         Program Version 4.2.1 -  RELEASE  -
|  1> # furan OPT with B3LYP/cc-pVTZ
|  2>
|  3> ! B3LYP cc-pVTZ TightSCF Opt PAL16
|  4> %maxcore 1000
|  5>
|  6> * xyzfile 0 1 furan_B3LYP_cc-pVDZ_OPT.xyz
|  7>
|  8>
|  9>                          ****END OF INPUT****
 Total Charge           Charge          ....    0
 Multiplicity           Mult            ....    1
 Number of Electrons    NEL             ....   36
FINAL SINGLE POINT ENERGY      -229.975036247782
FINAL SINGLE POINT ENERGY      -229.975576832425
FINAL SINGLE POINT ENERGY      -229.975584932463
                    ***********************HURRAY********************

CARTESIAN COORDINATES (ANGSTROEM)
---------------------------------
  C     -0.402260    1.313927   -0.000000
  O      0.011870    0.016872   -0.000000
  C      1.373217    0.038504    0.000000
  C      0.663016    2.150759    0.000000
  C      1.826076    1.315577   -0.000000
  H     -1.466347    1.467896   -0.000000
  H      1.859208   -0.920292    0.000000
  H      0.630397    3.226923    0.000000
  H      2.855922    1.628373   -0.000000

 Multiplicity           Mult            ....    1
 Number of Electrons    NEL             ....   36
 Basis Dimension        Dim             ....  206

ORBITAL ENERGIES
----------------

  NO   OCC          E(Eh)            E(eV)
   0   2.0000     -19.193936      -522.2935
   1   2.0000     -10.220390      -278.1109
   2   2.0000     -10.220355      -278.1100
   3   2.0000     -10.172269      -276.8015
   4   2.0000     -10.171837      -276.7898
   5   2.0000      -1.109855       -30.2007
   6   2.0000      -0.799852       -21.7651
   7   2.0000      -0.744990       -20.2722
   8   2.0000      -0.598781       -16.2936
   9   2.0000      -0.569712       -15.5026
  10   2.0000      -0.542480       -14.7616
  11   2.0000      -0.451237       -12.2788
  12   2.0000      -0.445574       -12.1247
  13   2.0000      -0.412168       -11.2157
  14   2.0000      -0.398932       -10.8555
  15   2.0000      -0.374240       -10.1836
  16   2.0000      -0.282555        -7.6887
  17   2.0000      -0.233292        -6.3482
  18   0.0000       0.005832         0.1587
  19   0.0000       0.058772         1.5993
  20   0.0000       0.061007         1.6601
  21   0.0000       0.081357         2.2138
  22   0.0000       0.086540         2.3549

MULLIKEN ATOMIC CHARGES
-----------------------
   0 C :   -0.030982
   1 O :   -0.157662
   2 C :   -0.014053
   3 C :   -0.178162
   4 C :   -0.168591
   5 H :    0.145351
   6 H :    0.128609
   7 H :    0.141697
   8 H :    0.133792
Sum of atomic charges:    0.0000000

LOEWDIN ATOMIC CHARGES
----------------------
   0 C :   -0.117609
   1 O :    0.446741
   2 C :   -0.116207
   3 C :   -0.018443
   4 C :   -0.017582
   5 H :   -0.050574
   6 H :   -0.051358
   7 H :   -0.037223
   8 H :   -0.037744

  Mayer bond orders larger than 0.100000
B(  0-C ,  1-O ) :   1.1504 B(  0-C ,  2-C ) :   0.1036 B(  0-C ,  3-C ) :   1.5752
B(  0-C ,  5-H ) :   0.9665 B(  1-O ,  2-C ) :   1.1564 B(  2-C ,  4-C ) :   1.6076
B(  2-C ,  6-H ) :   0.9682 B(  3-C ,  4-C ) :   1.1870 B(  3-C ,  7-H ) :   0.9581
B(  4-C ,  8-H ) :   0.9577

FINAL SINGLE POINT ENERGY      -229.975585377529

DIPOLE MOMENT
-------------
                                X             Y             Z
Electronic contribution:     -0.97115      -1.36009      -0.00000
Nuclear contribution   :      1.11263       1.54961       0.00000
                        -----------------------------------------
Total Dipole Moment    :      0.14148       0.18951       0.00000
                        -----------------------------------------
Magnitude (a.u.)       :      0.23650
Magnitude (Debye)      :      0.60112

Rotational constants in cm-1:     0.316601     0.310894     0.156861
Rotational constants in MHz :  9491.451983  9320.358423  4702.563577

                             ****ORCA TERMINATED NORMALLY****
TOTAL RUN TIME: 0 days 0 hours 0 minutes 38 seconds 778 msec
