                         Program Version 4.2.1 -  RELEASE  -
|  1> # acetaldehyde OPT with B3LYP/cc-pVTZ
|  2>
|  3> ! B3LYP cc-pVTZ TightSCF Opt PAL16
|  4> %maxcore 1000
|  5>
|  6> * xyzfile 0 1 acetaldehyde_B3LYP_cc-pVDZ_OPT.xyz
|  7>
|  8>
|  9>                          ****END OF INPUT****
 Total Charge           Charge          ....    0
 Multiplicity           Mult            ....    1
 Number of Electrons    NEL             ....   24
FINAL SINGLE POINT ENERGY      -153.804648154072
FINAL SINGLE POINT ENERGY      -153.805031401026
FINAL SINGLE POINT ENERGY      -153.805034098945
FINAL SINGLE POINT ENERGY      -153.805032680167
FINAL SINGLE POINT ENERGY      -153.805034715128
                    ***********************HURRAY********************

CARTESIAN COORDINATES (ANGSTROEM)
---------------------------------
  C      1.444562   -0.022002   -0.257638
  C     -0.042254    0.034698   -0.054725
  O     -0.734361    0.985246   -0.312046
  H      1.814777    0.913421   -0.671544
  H      1.936574   -0.230753    0.696353
  H      1.691365   -0.852562   -0.924978
  H     -0.493414   -0.889667    0.365298

 Multiplicity           Mult            ....    1
 Number of Electrons    NEL             ....   24
 Basis Dimension        Dim             ....  146

ORBITAL ENERGIES
----------------

  NO   OCC          E(Eh)            E(eV)
   0   2.0000     -19.129102      -520.5293
   1   2.0000     -10.266954      -279.3780
   2   2.0000     -10.184655      -277.1386
   3   2.0000      -1.053907       -28.6783
   4   2.0000      -0.757839       -20.6219
   5   2.0000      -0.583878       -15.8881
   6   2.0000      -0.483119       -13.1463
   7   2.0000      -0.449548       -12.2328
   8   2.0000      -0.441498       -12.0138
   9   2.0000      -0.402817       -10.9612
  10   2.0000      -0.371195       -10.1007
  11   2.0000      -0.262078        -7.1315
  12   0.0000      -0.029654        -0.8069
  13   0.0000       0.040958         1.1145
  14   0.0000       0.071603         1.9484
  15   0.0000       0.095995         2.6122
  16   0.0000       0.107992         2.9386

MULLIKEN ATOMIC CHARGES
-----------------------
   0 C :   -0.248210
   1 C :    0.158520
   2 O :   -0.250800
   3 H :    0.107206
   4 H :    0.093963
   5 H :    0.100375
   6 H :    0.038946
Sum of atomic charges:   -0.0000000

LOEWDIN ATOMIC CHARGES
----------------------
   0 C :    0.094510
   1 C :   -0.198543
   2 O :    0.211184
   3 H :   -0.020384
   4 H :   -0.014189
   5 H :   -0.013977
   6 H :   -0.058601

  Mayer bond orders larger than 0.100000
B(  0-C ,  1-C ) :   0.9234 B(  0-C ,  3-H ) :   0.9619 B(  0-C ,  4-H ) :   0.9468
B(  0-C ,  5-H ) :   0.9477 B(  1-C ,  2-O ) :   2.1813 B(  1-C ,  6-H ) :   0.9202

FINAL SINGLE POINT ENERGY      -153.805034742203

DIPOLE MOMENT
-------------
                                X             Y             Z
Electronic contribution:     -3.00565       1.51015      -0.12083
Nuclear contribution   :      3.77014      -2.24926       0.28751
                        -----------------------------------------
Total Dipole Moment    :      0.76450      -0.73911       0.16668
                        -----------------------------------------
Magnitude (a.u.)       :      1.07635
Magnitude (Debye)      :      2.73586

Rotational constants in cm-1:     1.914156     0.339018     0.304116
Rotational constants in MHz : 57384.958250 10163.513070  9117.168612

                             ****ORCA TERMINATED NORMALLY****
TOTAL RUN TIME: 0 days 0 hours 0 minutes 26 seconds 688 msec
