                         Program Version 4.2.1 -  RELEASE  -
|  1> # acetaldehyde OPT with B3LYP/cc-pVDZ
|  2>
|  3> ! B3LYP cc-pVDZ TightSCF Opt PAL16
|  4> %maxcore 1000
|  5>
|  6> * xyzfile 0 1 acetaldehyde.xyz
|  7>
|  8>
|  9>                          ****END OF INPUT****
 Total Charge           Charge          ....    0
 Multiplicity           Mult            ....    1
 Number of Electrons    NEL             ....   24
FINAL SINGLE POINT ENERGY      -153.739371464219
FINAL SINGLE POINT ENERGY      -153.748494568653
FINAL SINGLE POINT ENERGY      -153.749455310518
FINAL SINGLE POINT ENERGY      -153.749611276748
FINAL SINGLE POINT ENERGY      -153.749648409709
FINAL SINGLE POINT ENERGY      -153.749652995106
FINAL SINGLE POINT ENERGY      -153.749658571819
FINAL SINGLE POINT ENERGY      -153.749659562904
                    ***********************HURRAY********************

CARTESIAN COORDINATES (ANGSTROEM)
---------------------------------
  C      1.445420   -0.022014   -0.257834
  C     -0.046716    0.038095   -0.055318
  O     -0.740282    0.993477   -0.313996
  H      1.818938    0.923483   -0.676048
  H      1.942698   -0.233237    0.705444
  H      1.695025   -0.861491   -0.931011
  H     -0.497832   -0.899934    0.369483

 Multiplicity           Mult            ....    1
 Number of Electrons    NEL             ....   24
 Basis Dimension        Dim             ....   62

ORBITAL ENERGIES
----------------

  NO   OCC          E(Eh)            E(eV)
   0   2.0000     -19.139466      -520.8114
   1   2.0000     -10.278025      -279.6793
   2   2.0000     -10.198455      -277.5141
   3   2.0000      -1.046725       -28.4828
   4   2.0000      -0.750721       -20.4282
   5   2.0000      -0.575472       -15.6594
   6   2.0000      -0.474304       -12.9065
   7   2.0000      -0.441214       -12.0061
   8   2.0000      -0.432380       -11.7657
   9   2.0000      -0.394534       -10.7358
  10   2.0000      -0.362324        -9.8593
  11   2.0000      -0.252600        -6.8736
  12   0.0000      -0.020860        -0.5676
  13   0.0000       0.067822         1.8455
  14   0.0000       0.095813         2.6072
  15   0.0000       0.121353         3.3022
  16   0.0000       0.130025         3.5382

MULLIKEN ATOMIC CHARGES
-----------------------
   0 C :   -0.034441
   1 C :    0.107942
   2 O :   -0.187176
   3 H :    0.041155
   4 H :    0.046050
   5 H :    0.046392
   6 H :   -0.019921
Sum of atomic charges:   -0.0000000

LOEWDIN ATOMIC CHARGES
----------------------
   0 C :   -0.091135
   1 C :   -0.027897
   2 O :   -0.002321
   3 H :    0.036719
   4 H :    0.046665
   5 H :    0.046491
   6 H :   -0.008521

  Mayer bond orders larger than 0.100000
B(  0-C ,  1-C ) :   1.0546 B(  0-C ,  3-H ) :   0.9594 B(  0-C ,  4-H ) :   0.9482
B(  0-C ,  5-H ) :   0.9484 B(  1-C ,  2-O ) :   2.2252 B(  1-C ,  6-H ) :   0.9103

FINAL SINGLE POINT ENERGY      -153.749659612099

DIPOLE MOMENT
-------------
                                X             Y             Z
Electronic contribution:     -3.08024       1.59626      -0.14171
Nuclear contribution   :      3.78998      -2.27378       0.29330
                        -----------------------------------------
Total Dipole Moment    :      0.70973      -0.67751       0.15158
                        -----------------------------------------
Magnitude (a.u.)       :      0.99283
Magnitude (Debye)      :      2.52358

Rotational constants in cm-1:     1.886973     0.336053     0.301362
Rotational constants in MHz : 56570.014919 10074.626968  9034.603822

                             ****ORCA TERMINATED NORMALLY****
TOTAL RUN TIME: 0 days 0 hours 0 minutes 28 seconds 305 msec
