                         Program Version 4.2.1 -  RELEASE  -
|  1> # acetaldehyde MP2/aug-cc-pVTZ Optimization
|  2>
|  3> ! MP2 aug-cc-pVTZ TightSCF Opt PAL16
|  4> %maxcore 1000
|  5>
|  6> * xyzfile 0 1 acetaldehyde_B3LYP_cc-pVTZ_OPT.xyz
|  7>
|  8>
|  9>                          ****END OF INPUT****
 Total Charge           Charge          ....    0
 Multiplicity           Mult            ....    1
 Number of Electrons    NEL             ....   24
MP2 TOTAL ENERGY:     -153.554104472 Eh
FINAL SINGLE POINT ENERGY      -153.554104472155
MP2 TOTAL ENERGY:     -153.554303036 Eh
FINAL SINGLE POINT ENERGY      -153.554303035652
MP2 TOTAL ENERGY:     -153.554327976 Eh
FINAL SINGLE POINT ENERGY      -153.554327976058
MP2 TOTAL ENERGY:     -153.554330282 Eh
FINAL SINGLE POINT ENERGY      -153.554330281739
MP2 TOTAL ENERGY:     -153.554330045 Eh
FINAL SINGLE POINT ENERGY      -153.554330045055
                    ***********************HURRAY********************

CARTESIAN COORDINATES (ANGSTROEM)
---------------------------------
  C      1.446461   -0.023258   -0.257387
  C     -0.036315    0.028216   -0.052843
  O     -0.733133    0.988959   -0.314435
  H      1.809508    0.913145   -0.670530
  H      1.934230   -0.230113    0.696431
  H      1.689184   -0.850886   -0.925647
  H     -0.492685   -0.887683    0.365130

 Multiplicity           Mult            ....    1
 Number of Electrons    NEL             ....   24
 Basis Dimension        Dim             ....  230

ORBITAL ENERGIES
----------------

  NO   OCC          E(Eh)            E(eV)
   0   2.0000     -20.560285      -559.4738
   1   2.0000     -11.337471      -308.5083
   2   2.0000     -11.242701      -305.9294
   3   2.0000      -1.390455       -37.8362
   4   2.0000      -1.024959       -27.8906
   5   2.0000      -0.803798       -21.8725
   6   2.0000      -0.675164       -18.3721
   7   2.0000      -0.624261       -16.9870
   8   2.0000      -0.606708       -16.5094
   9   2.0000      -0.563401       -15.3309
  10   2.0000      -0.502982       -13.6868
  11   2.0000      -0.428192       -11.6517
  12   0.0000       0.026181         0.7124
  13   0.0000       0.038507         1.0478
  14   0.0000       0.042203         1.1484
  15   0.0000       0.053201         1.4477
  16   0.0000       0.088627         2.4117

MULLIKEN ATOMIC CHARGES
-----------------------
   0 C :   -0.751028
   1 C :   -0.151657
   2 O :   -0.526767
   3 H :    0.331204
   4 H :    0.309344
   5 H :    0.309385
   6 H :    0.479519
Sum of atomic charges:    0.0000000

LOEWDIN ATOMIC CHARGES
----------------------
   0 C :    0.541313
   1 C :   -0.245307
   2 O :    0.457776
   3 H :   -0.188048
   4 H :   -0.182914
   5 H :   -0.182912
   6 H :   -0.199908

  Mayer bond orders larger than 0.100000
B(  0-C ,  1-C ) :   0.8658 B(  0-C ,  3-H ) :   0.8492 B(  0-C ,  4-H ) :   0.8541
B(  0-C ,  5-H ) :   0.8542 B(  1-C ,  2-O ) :   1.6125 B(  1-C ,  6-H ) :   0.6419

MP2 TOTAL ENERGY:     -153.554330952 Eh
FINAL SINGLE POINT ENERGY      -153.554330951694

DIPOLE MOMENT
-------------
                                X             Y             Z
Electronic contribution:     -2.98271       1.47347      -0.11140
Nuclear contribution   :      3.75271      -2.24291       0.28877
                        -----------------------------------------
Total Dipole Moment    :      0.77000      -0.76944       0.17738
                        -----------------------------------------
Magnitude (a.u.)       :      1.10290
Magnitude (Debye)      :      2.80336

Rotational constants in cm-1:     1.901356     0.338825     0.303642
Rotational constants in MHz : 57001.220388 10157.716774  9102.948745

                             ****ORCA TERMINATED NORMALLY****
TOTAL RUN TIME: 0 days 0 hours 3 minutes 44 seconds 608 msec
