                         Program Version 4.2.1 -  RELEASE  -
|  1> # acetaldehyde DLPNO-CCSD(T)/aug-cc-pVTZ SPE
|  2>
|  3> ! DLPNO-CCSD(T) aug-cc-pVTZ aug-cc-pVTZ/C TightSCF PAL16
|  4> %maxcore 1000
|  5>
|  6> * xyzfile 0 1 acetaldehyde_MP2_aug-cc-pVTZ_OPT.xyz
|  7>
|  8>
|  9>                          ****END OF INPUT****

CARTESIAN COORDINATES (ANGSTROEM)
---------------------------------
  C      1.446461   -0.023258   -0.257387
  C     -0.036315    0.028216   -0.052843
  O     -0.733133    0.988959   -0.314435
  H      1.809508    0.913145   -0.670530
  H      1.934230   -0.230113    0.696431
  H      1.689184   -0.850886   -0.925647
  H     -0.492685   -0.887683    0.365130

 Total Charge           Charge          ....    0
 Multiplicity           Mult            ....    1
 Number of Electrons    NEL             ....   24
 Basis Dimension        Dim             ....  230

ORBITAL ENERGIES
----------------

  NO   OCC          E(Eh)            E(eV)
   0   2.0000     -20.560290      -559.4739
   1   2.0000     -11.337474      -308.5083
   2   2.0000     -11.242708      -305.9296
   3   2.0000      -1.390457       -37.8363
   4   2.0000      -1.024962       -27.8906
   5   2.0000      -0.803800       -21.8725
   6   2.0000      -0.675166       -18.3722
   7   2.0000      -0.624263       -16.9871
   8   2.0000      -0.606710       -16.5094
   9   2.0000      -0.563403       -15.3310
  10   2.0000      -0.502984       -13.6869
  11   2.0000      -0.428193       -11.6517
  12   0.0000       0.026181         0.7124
  13   0.0000       0.038507         1.0478
  14   0.0000       0.042203         1.1484
  15   0.0000       0.053201         1.4477
  16   0.0000       0.088627         2.4117

MULLIKEN ATOMIC CHARGES
-----------------------
   0 C :   -0.693784
   1 C :   -0.082944
   2 O :   -0.628405
   3 H :    0.319470
   4 H :    0.294695
   5 H :    0.294740
   6 H :    0.496227
Sum of atomic charges:   -0.0000000

LOEWDIN ATOMIC CHARGES
----------------------
   0 C :    0.564111
   1 C :   -0.231482
   2 O :    0.415211
   3 H :   -0.187684
   4 H :   -0.185185
   5 H :   -0.185182
   6 H :   -0.189790

  Mayer bond orders larger than 0.100000
B(  0-C ,  1-C ) :   0.8871 B(  0-C ,  3-H ) :   0.9027 B(  0-C ,  4-H ) :   0.9149
B(  0-C ,  5-H ) :   0.9149 B(  1-C ,  2-O ) :   1.6791 B(  1-C ,  6-H ) :   0.6767

E(0)                                       ...   -152.976308529
E(0)                                       ...   -152.976308529
E(CORR)(strong-pairs)                      ...     -0.595787986
E(CORR)(weak-pairs)                        ...     -0.000960261
E(CORR)(corrected)                         ...     -0.596748246
E(TOT)                                     ...   -153.573056775
E(CCSD(T))                                 ...   -153.596887680
FINAL SINGLE POINT ENERGY      -153.596887679604

DIPOLE MOMENT
-------------
                                X             Y             Z
Electronic contribution:     -2.86375       1.31789      -0.06997
Nuclear contribution   :      3.75271      -2.24291       0.28877
                        -----------------------------------------
Total Dipole Moment    :      0.88896      -0.92502       0.21881
                        -----------------------------------------
Magnitude (a.u.)       :      1.30146
Magnitude (Debye)      :      3.30804

Rotational constants in cm-1:     1.901356     0.338825     0.303642
Rotational constants in MHz : 57001.220388 10157.716774  9102.948745

                             ****ORCA TERMINATED NORMALLY****
TOTAL RUN TIME: 0 days 0 hours 0 minutes 53 seconds 924 msec
