                         Program Version 4.2.1 -  RELEASE  -
|  1> # acetaldehyde CCSD/aug-cc-pVTZ SPE
|  2>
|  3> ! CCSD aug-cc-pVTZ TightSCF PAL16
|  4> %maxcore 1000
|  5>
|  6> * xyzfile 0 1 acetaldehyde_MP2_aug-cc-pVTZ_OPT.xyz
|  7>
|  8>
|  9>                          ****END OF INPUT****

CARTESIAN COORDINATES (ANGSTROEM)
---------------------------------
  C      1.446461   -0.023258   -0.257387
  C     -0.036315    0.028216   -0.052843
  O     -0.733133    0.988959   -0.314435
  H      1.809508    0.913145   -0.670530
  H      1.934230   -0.230113    0.696431
  H      1.689184   -0.850886   -0.925647
  H     -0.492685   -0.887683    0.365130

 Total Charge           Charge          ....    0
 Multiplicity           Mult            ....    1
 Number of Electrons    NEL             ....   24
 Basis Dimension        Dim             ....  230

ORBITAL ENERGIES
----------------

  NO   OCC          E(Eh)            E(eV)
   0   2.0000     -20.560290      -559.4739
   1   2.0000     -11.337474      -308.5083
   2   2.0000     -11.242708      -305.9296
   3   2.0000      -1.390457       -37.8363
   4   2.0000      -1.024962       -27.8906
   5   2.0000      -0.803800       -21.8725
   6   2.0000      -0.675166       -18.3722
   7   2.0000      -0.624263       -16.9871
   8   2.0000      -0.606710       -16.5094
   9   2.0000      -0.563403       -15.3310
  10   2.0000      -0.502984       -13.6869
  11   2.0000      -0.428193       -11.6517
  12   0.0000       0.026181         0.7124
  13   0.0000       0.038507         1.0478
  14   0.0000       0.042203         1.1484
  15   0.0000       0.053201         1.4477
  16   0.0000       0.088627         2.4117

E(0)                                       ...   -152.976308529
E(0)                                       ...   -152.976308529
E(CORR)                                    ...     -0.596773031
E(TOT)                                     ...   -153.573081560

MULLIKEN ATOMIC CHARGES
-----------------------
   0 C :   -0.752224
   1 C :   -0.169777
   2 O :   -0.512724
   3 H :    0.331662
   4 H :    0.310980
   5 H :    0.311024
   6 H :    0.481059
Sum of atomic charges:   -0.0000000

LOEWDIN ATOMIC CHARGES
----------------------
   0 C :    0.535867
   1 C :   -0.250181
   2 O :    0.464352
   3 H :   -0.186199
   4 H :   -0.181926
   5 H :   -0.181923
   6 H :   -0.199990

  Mayer bond orders larger than 0.100000
B(  0-C ,  1-C ) :   0.8466 B(  0-C ,  3-H ) :   0.8313 B(  0-C ,  4-H ) :   0.8360
B(  0-C ,  5-H ) :   0.8360 B(  1-C ,  2-O ) :   1.5975 B(  1-C ,  6-H ) :   0.6245

FINAL SINGLE POINT ENERGY      -153.573081560159

DIPOLE MOMENT
-------------
                                X             Y             Z
Electronic contribution:     -3.00227       1.49914      -0.11826
Nuclear contribution   :      3.75271      -2.24291       0.28877
                        -----------------------------------------
Total Dipole Moment    :      0.75044      -0.74377       0.17052
                        -----------------------------------------
Magnitude (a.u.)       :      1.07025
Magnitude (Debye)      :      2.72035

Rotational constants in cm-1:     1.901356     0.338825     0.303642
Rotational constants in MHz : 57001.220388 10157.716774  9102.948745

                             ****ORCA TERMINATED NORMALLY****
TOTAL RUN TIME: 0 days 0 hours 2 minutes 31 seconds 645 msec
