                         Program Version 4.2.1 -  RELEASE  -
|  1> # Water SPE  with B3LYP/cc-pVTZ
|  2>
|  3> ! DLPNO-CCSD(T) aug-cc-pVTZ aug-cc-pVTZ/C TightSCF PAL4
|  4>
|  5> * xyzfile 0 1 water_MP2_aug-cc-pVTZ_OPT.xyz
|  6>
|  7>                          ****END OF INPUT****

CARTESIAN COORDINATES (ANGSTROEM)
---------------------------------
  O     -0.009752   -0.013799    0.000000
  H     -0.287462    0.906575    0.000000
  H      0.950554    0.031174    0.000000

 Total Charge           Charge          ....    0
 Multiplicity           Mult            ....    1
 Number of Electrons    NEL             ....   10
 Basis Dimension        Dim             ....   92

ORBITAL ENERGIES
----------------

  NO   OCC          E(Eh)            E(eV)
   0   2.0000     -20.568098      -559.6864
   1   2.0000      -1.351770       -36.7835
   2   2.0000      -0.714805       -19.4508
   3   2.0000      -0.584949       -15.9173
   4   2.0000      -0.510142       -13.8817
   5   0.0000       0.029366         0.7991
   6   0.0000       0.047693         1.2978
   7   0.0000       0.135888         3.6977
   8   0.0000       0.158784         4.3207
   9   0.0000       0.175162         4.7664

MULLIKEN ATOMIC CHARGES
-----------------------
   0 O :   -0.444797
   1 H :    0.222398
   2 H :    0.222399
Sum of atomic charges:   -0.0000000

LOEWDIN ATOMIC CHARGES
----------------------
   0 O :    1.024701
   1 H :   -0.512351
   2 H :   -0.512350

  Mayer bond orders larger than 0.100000
B(  0-O ,  1-H ) :   0.9971 B(  0-O ,  2-H ) :   0.9971

E(0)                                       ...    -76.060282879
E(0)                                       ...    -76.060282879
E(CORR)(strong-pairs)                      ...     -0.273407653
E(CORR)(weak-pairs)                        ...     -0.000159428
E(CORR)(corrected)                         ...     -0.273567081
E(TOT)                                     ...    -76.333849961
E(CCSD(T))                                 ...    -76.342170530
FINAL SINGLE POINT ENERGY       -76.342170529769

DIPOLE MOMENT
-------------
                                X             Y             Z
Electronic contribution:     -0.11556      -0.16342       0.00000
Nuclear contribution   :      0.56817       0.80352       0.00000
                        -----------------------------------------
Total Dipole Moment    :      0.45261       0.64009       0.00000
                        -----------------------------------------
Magnitude (a.u.)       :      0.78395
Magnitude (Debye)      :      1.99264

Rotational constants in cm-1:    26.943442    14.548736     9.447396
Rotational constants in MHz : 807744.057798 436160.125777 283225.793833

                             ****ORCA TERMINATED NORMALLY****
TOTAL RUN TIME: 0 days 0 hours 0 minutes 9 seconds 717 msec
