                         Program Version 4.2.1 -  RELEASE  -
|  1> # Water geom opt with B3LYP/cc-pVDZ
|  2>
|  3> ! B3LYP cc-pVTZ Opt PAL4
|  4>
|  5> * xyzfile 0 1 water_b3lyp_cc-pVDZ.xyz
|  6>
|  7>                          ****END OF INPUT****
 Total Charge           Charge          ....    0
 Multiplicity           Mult            ....    1
 Number of Electrons    NEL             ....   10
FINAL SINGLE POINT ENERGY       -76.422563185733
FINAL SINGLE POINT ENERGY       -76.422688336433
FINAL SINGLE POINT ENERGY       -76.422711683293
FINAL SINGLE POINT ENERGY       -76.422713994156
                    ***********************HURRAY********************

CARTESIAN COORDINATES (ANGSTROEM)
---------------------------------
  O     -0.008713   -0.012335    0.000000
  H     -0.289892    0.907195    0.000000
  H      0.951944    0.029090    0.000000

 Multiplicity           Mult            ....    1
 Number of Electrons    NEL             ....   10
 Basis Dimension        Dim             ....   58

ORBITAL ENERGIES
----------------

  NO   OCC          E(Eh)            E(eV)
   0   2.0000     -19.117231      -520.2063
   1   2.0000      -1.004492       -27.3336
   2   2.0000      -0.523941       -14.2572
   3   2.0000      -0.381867       -10.3911
   4   2.0000      -0.305440        -8.3114
   5   0.0000       0.026462         0.7201
   6   0.0000       0.099099         2.6966
   7   0.0000       0.369801        10.0628
   8   0.0000       0.416808        11.3419
   9   0.0000       0.495690        13.4884

MULLIKEN ATOMIC CHARGES
-----------------------
   0 O :   -0.427054
   1 H :    0.214863
   2 H :    0.212191
Sum of atomic charges:   -0.0000000

LOEWDIN ATOMIC CHARGES
----------------------
   0 O :    0.372084
   1 H :   -0.185926
   2 H :   -0.186158

  Mayer bond orders larger than 0.100000
B(  0-O ,  1-H ) :   1.0245 B(  0-O ,  2-H ) :   1.0291

FINAL SINGLE POINT ENERGY       -76.422714009007

DIPOLE MOMENT
-------------
                                X             Y             Z
Electronic contribution:     -0.12994      -0.18555       0.00000
Nuclear contribution   :      0.56557       0.79986       0.00000
                        -----------------------------------------
Total Dipole Moment    :      0.43563       0.61431       0.00000
                        -----------------------------------------
Magnitude (a.u.)       :      0.75310
Magnitude (Debye)      :      1.91422

Rotational constants in cm-1:    27.190549    14.459333     9.439576
Rotational constants in MHz : 815152.143935 433479.906730 282991.354527

                             ****ORCA TERMINATED NORMALLY****
TOTAL RUN TIME: 0 days 0 hours 0 minutes 8 seconds 602 msec
