                         Program Version 4.2.1 -  RELEASE  -
|  1> # Water geom opt with B3LYP/cc-pVTZ
|  2>
|  3> ! MP2 aug-cc-pVTZ TightSCF Opt PAL4
|  4>
|  5> * xyzfile 0 1 water_b3lyp_cc-pVTZ.xyz
|  6>
|  7>                          ****END OF INPUT****
 Total Charge           Charge          ....    0
 Multiplicity           Mult            ....    1
 Number of Electrons    NEL             ....   10
MP2 TOTAL ENERGY:      -76.328987821 Eh
FINAL SINGLE POINT ENERGY       -76.328987820764
MP2 TOTAL ENERGY:      -76.328991344 Eh
FINAL SINGLE POINT ENERGY       -76.328991343948
MP2 TOTAL ENERGY:      -76.328992389 Eh
FINAL SINGLE POINT ENERGY       -76.328992389424
                    ***********************HURRAY********************

CARTESIAN COORDINATES (ANGSTROEM)
---------------------------------
  O     -0.009752   -0.013799    0.000000
  H     -0.287462    0.906575    0.000000
  H      0.950554    0.031174    0.000000

 Multiplicity           Mult            ....    1
 Number of Electrons    NEL             ....   10
 Basis Dimension        Dim             ....   92

ORBITAL ENERGIES
----------------

  NO   OCC          E(Eh)            E(eV)
   0   2.0000     -20.568104      -559.6866
   1   2.0000      -1.351772       -36.7836
   2   2.0000      -0.714807       -19.4509
   3   2.0000      -0.584952       -15.9173
   4   2.0000      -0.510144       -13.8817
   5   0.0000       0.029366         0.7991
   6   0.0000       0.047693         1.2978
   7   0.0000       0.135887         3.6977
   8   0.0000       0.158784         4.3207
   9   0.0000       0.175162         4.7664

MULLIKEN ATOMIC CHARGES
-----------------------
   0 O :   -0.429501
   1 H :    0.214750
   2 H :    0.214751
Sum of atomic charges:   -0.0000000

LOEWDIN ATOMIC CHARGES
----------------------
   0 O :    1.028900
   1 H :   -0.514450
   2 H :   -0.514450

  Mayer bond orders larger than 0.100000
B(  0-O ,  1-H ) :   0.9558 B(  0-O ,  2-H ) :   0.9558

MP2 TOTAL ENERGY:      -76.328992409 Eh
FINAL SINGLE POINT ENERGY       -76.328992409171

DIPOLE MOMENT
-------------
                                X             Y             Z
Electronic contribution:     -0.14580      -0.20619       0.00000
Nuclear contribution   :      0.56817       0.80352       0.00000
                        -----------------------------------------
Total Dipole Moment    :      0.42237       0.59733       0.00000
                        -----------------------------------------
Magnitude (a.u.)       :      0.73157
Magnitude (Debye)      :      1.85951

Rotational constants in cm-1:    26.943442    14.548736     9.447396
Rotational constants in MHz : 807744.057798 436160.125777 283225.793833

                             ****ORCA TERMINATED NORMALLY****
TOTAL RUN TIME: 0 days 0 hours 0 minutes 22 seconds 450 msec
