                         Program Version 4.2.1 -  RELEASE  -
|  1> # Water geom opt with B3LYP/cc-pVDZ
|  2>
|  3> ! B3LYP cc-pVDZ Opt PAL4
|  4>
|  5> *xyz 0 1
|  6>   O       -0.01314       -0.01859        0.00000
|  7>   H       -0.29943        0.91863        0.00000
|  8>   H        0.96591        0.02391        0.00000
|  9> **                         ****END OF INPUT****
 Total Charge           Charge          ....    0
 Multiplicity           Mult            ....    1
 Number of Electrons    NEL             ....   10
FINAL SINGLE POINT ENERGY       -76.383136587890
FINAL SINGLE POINT ENERGY       -76.383466171544
FINAL SINGLE POINT ENERGY       -76.383474554644
FINAL SINGLE POINT ENERGY       -76.383477077980
                    ***********************HURRAY********************

CARTESIAN COORDINATES (ANGSTROEM)
---------------------------------
  O     -0.015093   -0.021299    0.000000
  H     -0.283701    0.909539    0.000000
  H      0.952134    0.035710    0.000000

 Multiplicity           Mult            ....    1
 Number of Electrons    NEL             ....   10
 Basis Dimension        Dim             ....   24

ORBITAL ENERGIES
----------------

  NO   OCC          E(Eh)            E(eV)
   0   2.0000     -19.120441      -520.2937
   1   2.0000      -0.988042       -26.8860
   2   2.0000      -0.503066       -13.6891
   3   2.0000      -0.363865        -9.9013
   4   2.0000      -0.283764        -7.7216
   5   0.0000       0.051723         1.4074
   6   0.0000       0.127967         3.4822
   7   0.0000       0.552811        15.0427
   8   0.0000       0.614671        16.7260
   9   0.0000       0.907432        24.6925

MULLIKEN ATOMIC CHARGES
-----------------------
   0 O :   -0.260125
   1 H :    0.130107
   2 H :    0.130018
Sum of atomic charges:    0.0000000

LOEWDIN ATOMIC CHARGES
----------------------
   0 O :   -0.091010
   1 H :    0.045493
   2 H :    0.045518

  Mayer bond orders larger than 0.100000
B(  0-O ,  1-H ) :   1.0311 B(  0-O ,  2-H ) :   1.0319

FINAL SINGLE POINT ENERGY       -76.383477072208

DIPOLE MOMENT
-------------
                                X             Y             Z
Electronic contribution:     -0.14200      -0.20194      -0.00000
Nuclear contribution   :      0.58150       0.82225       0.00000
                        -----------------------------------------
Total Dipole Moment    :      0.43950       0.62031      -0.00000
                        -----------------------------------------
Magnitude (a.u.)       :      0.76023
Magnitude (Debye)      :      1.93234

Rotational constants in cm-1:    25.727239    14.600464     9.314432
Rotational constants in MHz : 771283.213859 437710.907103 279239.633443

                             ****ORCA TERMINATED NORMALLY****
TOTAL RUN TIME: 0 days 0 hours 0 minutes 6 seconds 883 msec
