                         Program Version 4.2.1 -  RELEASE  -
|  1> # nitrogen_monoxide MP2/aug-cc-pVTZ Optimization
|  2>
|  3> ! MP2 aug-cc-pVTZ TightSCF Opt PAL4
|  4>
|  5> * xyzfile 0 2 nitrogen_monoxide_B3LYP_cc-pVTZ_OPT.xyz
|  6>
|  7>
|  8>                          ****END OF INPUT****
 Total Charge           Charge          ....    0
 Multiplicity           Mult            ....    2
 Number of Electrons    NEL             ....   15
MP2 TOTAL ENERGY:     -129.701929840 Eh
FINAL SINGLE POINT ENERGY      -129.701929839882
MP2 TOTAL ENERGY:     -129.700509177 Eh
FINAL SINGLE POINT ENERGY      -129.700509176563
MP2 TOTAL ENERGY:     -129.702378375 Eh
FINAL SINGLE POINT ENERGY      -129.702378375270
MP2 TOTAL ENERGY:     -129.702490086 Eh
FINAL SINGLE POINT ENERGY      -129.702490085792
MP2 TOTAL ENERGY:     -129.702492309 Eh
FINAL SINGLE POINT ENERGY      -129.702492309084
MP2 TOTAL ENERGY:     -129.702494580 Eh
FINAL SINGLE POINT ENERGY      -129.702494579904
                    ***********************HURRAY********************

CARTESIAN COORDINATES (ANGSTROEM)
---------------------------------
  N    -27.881903   12.166670    0.000000
  O    -26.744757   12.166670    0.000000

 Multiplicity           Mult            ....    2
 Number of Electrons    NEL             ....   15
 Basis Dimension        Dim             ....   92

ORBITAL ENERGIES
----------------
                 SPIN UP ORBITALS
  NO   OCC          E(Eh)            E(eV)
   0   1.0000     -20.703676      -563.3757
   1   1.0000     -15.732544      -428.1043
   2   1.0000      -1.628883       -44.3241
   3   1.0000      -0.968760       -26.3613
   4   1.0000      -0.796958       -21.6863
   5   1.0000      -0.703786       -19.1510
   6   1.0000      -0.658145       -17.9090
   7   1.0000      -0.421845       -11.4790
   8   0.0000       0.075273         2.0483
   9   0.0000       0.084459         2.2983
  10   0.0000       0.118750         3.2313
  11   0.0000       0.124766         3.3951
  12   0.0000       0.134533         3.6608

                 SPIN DOWN ORBITALS
  NO   OCC          E(Eh)            E(eV)
   0   1.0000     -20.691865      -563.0543
   1   1.0000     -15.701197      -427.2513
   2   1.0000      -1.590573       -43.2817
   3   1.0000      -0.885383       -24.0925
   4   1.0000      -0.663006       -18.0413
   5   1.0000      -0.656620       -17.8675
   6   1.0000      -0.618726       -16.8364
   7   0.0000       0.084978         2.3124
   8   0.0000       0.086358         2.3499
   9   0.0000       0.106169         2.8890
  10   0.0000       0.121989         3.3195
  11   0.0000       0.147933         4.0254

MULLIKEN ATOMIC CHARGES AND SPIN DENSITIES
------------------------------------------
   0 N :    0.024749   -0.136057
   1 O :   -0.024749    1.136057
Sum of atomic charges       :   -0.0000000

LOEWDIN ATOMIC CHARGES AND SPIN DENSITIES
-----------------------------------------
   0 N :   -0.092512    0.124664
   1 O :    0.092512    0.875336

  Mayer bond orders larger than 0.100000
B(  0-N ,  1-O ) :   1.9688

MP2 TOTAL ENERGY:     -129.702493398 Eh
FINAL SINGLE POINT ENERGY      -129.702493397787

DIPOLE MOMENT
-------------
                                X             Y             Z
Electronic contribution:      0.08165       0.00000       0.00000
Nuclear contribution   :      0.00451       0.00000       0.00000
                        -----------------------------------------
Total Dipole Moment    :      0.08616       0.00000       0.00000
                        -----------------------------------------
Magnitude (a.u.)       :      0.08616
Magnitude (Debye)      :      0.21901

Rotational constants in cm-1:     0.000000     1.745556     1.745556
Rotational constants in MHz :     0.000000 52330.457168 52330.457168

                             ****ORCA TERMINATED NORMALLY****
TOTAL RUN TIME: 0 days 0 hours 1 minutes 37 seconds 360 msec
