                         Program Version 4.2.1 -  RELEASE  -
|  1> # nitrogen_monoxide DLPNO-CCSD(T)/aug-cc-pVTZ SPE
|  2>
|  3> ! DLPNO-CCSD(T) aug-cc-pVTZ aug-cc-pVTZ/C TightSCF PAL4
|  4> %maxcore 1000
|  5>
|  6> * xyzfile 0 2 nitrogen_monoxide_MP2_aug-cc-pVTZ_OPT.xyz
|  7>
|  8>
|  9>                          ****END OF INPUT****

CARTESIAN COORDINATES (ANGSTROEM)
---------------------------------
  N    -27.881903   12.166670    0.000000
  O    -26.744757   12.166670    0.000000

 Total Charge           Charge          ....    0
 Multiplicity           Mult            ....    2
 Number of Electrons    NEL             ....   15
 Basis Dimension        Dim             ....   92

ORBITAL ENERGIES
----------------
                 SPIN UP ORBITALS
  NO   OCC          E(Eh)            E(eV)
   0   1.0000     -20.703676      -563.3757
   1   1.0000     -15.732544      -428.1043
   2   1.0000      -1.628883       -44.3242
   3   1.0000      -0.968760       -26.3613
   4   1.0000      -0.796958       -21.6863
   5   1.0000      -0.703786       -19.1510
   6   1.0000      -0.658146       -17.9091
   7   1.0000      -0.421845       -11.4790
   8   0.0000       0.075273         2.0483
   9   0.0000       0.084459         2.2983
  10   0.0000       0.118750         3.2313
  11   0.0000       0.124766         3.3951
  12   0.0000       0.134533         3.6608

                 SPIN DOWN ORBITALS
  NO   OCC          E(Eh)            E(eV)
   0   1.0000     -20.691864      -563.0543
   1   1.0000     -15.701198      -427.2513
   2   1.0000      -1.590573       -43.2817
   3   1.0000      -0.885383       -24.0925
   4   1.0000      -0.663005       -18.0413
   5   1.0000      -0.656620       -17.8675
   6   1.0000      -0.618727       -16.8364
   7   0.0000       0.084978         2.3124
   8   0.0000       0.086358         2.3499
   9   0.0000       0.106169         2.8890
  10   0.0000       0.121989         3.3195
  11   0.0000       0.147932         4.0254

MULLIKEN ATOMIC CHARGES AND SPIN POPULATIONS
--------------------------------------------
   0 N :    0.138614    0.866880
   1 O :   -0.138614    0.133120
Sum of atomic charges         :    0.0000000

LOEWDIN ATOMIC CHARGES AND SPIN POPULATIONS
-------------------------------------------
   0 N :   -0.065757    0.705381
   1 O :    0.065757    0.294619

  Mayer bond orders larger than 0.100000
B(  0-N ,  1-O ) :   1.9041

E(0)                                       ...   -129.292368630
E(0)                                       ...   -129.292368630
E(CORR)(strong-pairs)                      ...     -0.411751131
E(CORR)(weak-pairs)                        ...     -0.001903205
E(CORR)(corrected)                         ...     -0.413654336
E(TOT)                                     ...   -129.706022966
E(CCSD(T))                                 ...   -129.724464119
FINAL SINGLE POINT ENERGY      -129.724464118894

DIPOLE MOMENT
-------------
                                X             Y             Z
Electronic contribution:     -0.08447       0.00000      -0.00000
Nuclear contribution   :      0.00451       0.00000       0.00000
                        -----------------------------------------
Total Dipole Moment    :     -0.07996       0.00000      -0.00000
                        -----------------------------------------
Magnitude (a.u.)       :      0.07996
Magnitude (Debye)      :      0.20324

Rotational constants in cm-1:     0.000000     1.745556     1.745556
Rotational constants in MHz :     0.000000 52330.457168 52330.457168

                             ****ORCA TERMINATED NORMALLY****
TOTAL RUN TIME: 0 days 0 hours 1 minutes 11 seconds 848 msec
