                         Program Version 4.2.1 -  RELEASE  -
|  1> # nitrogen_monoxide OPT with B3LYP/cc-pVTZ
|  2>
|  3> ! B3LYP cc-pVTZ TightSCF Opt PAL4
|  4>
|  5> * xyzfile 0 2 nitrogen_monoxide_B3LYP_cc-pVDZ_OPT.xyz
|  6>
|  7>
|  8>                          ****END OF INPUT****
 Total Charge           Charge          ....    0
 Multiplicity           Mult            ....    2
 Number of Electrons    NEL             ....   15
FINAL SINGLE POINT ENERGY      -129.884309149650
FINAL SINGLE POINT ENERGY      -129.884429322325
FINAL SINGLE POINT ENERGY      -129.884430573653
                    ***********************HURRAY********************

CARTESIAN COORDINATES (ANGSTROEM)
---------------------------------
  N    -27.886460   12.166670    0.000000
  O    -26.740200   12.166670    0.000000

 Multiplicity           Mult            ....    2
 Number of Electrons    NEL             ....   15
 Basis Dimension        Dim             ....   60

ORBITAL ENERGIES
----------------
                 SPIN UP ORBITALS
  NO   OCC          E(Eh)            E(eV)
   0   1.0000     -19.266118      -524.2577
   1   1.0000     -14.453367      -393.2961
   2   1.0000      -1.250015       -34.0146
   3   1.0000      -0.688279       -18.7290
   4   1.0000      -0.539458       -14.6794
   5   1.0000      -0.512103       -13.9350
   6   1.0000      -0.486533       -13.2392
   7   1.0000      -0.215665        -5.8685
   8   0.0000      -0.104298        -2.8381
   9   0.0000       0.239146         6.5075
  10   0.0000       0.413495        11.2518
  11   0.0000       0.419861        11.4250
  12   0.0000       0.450017        12.2456

                 SPIN DOWN ORBITALS
  NO   OCC          E(Eh)            E(eV)
   0   1.0000     -19.255493      -523.9686
   1   1.0000     -14.437561      -392.8660
   2   1.0000      -1.228933       -33.4410
   3   1.0000      -0.651691       -17.7334
   4   1.0000      -0.502457       -13.6726
   5   1.0000      -0.466116       -12.6837
   6   1.0000      -0.462167       -12.5762
   7   0.0000      -0.088675        -2.4130
   8   0.0000      -0.046811        -1.2738
   9   0.0000       0.246034         6.6949
  10   0.0000       0.425767        11.5857
  11   0.0000       0.448180        12.1956

MULLIKEN ATOMIC CHARGES AND SPIN POPULATIONS
--------------------------------------------
   0 N :   -0.003953    0.689885
   1 O :    0.003953    0.310115
Sum of atomic charges         :   -0.0000000

LOEWDIN ATOMIC CHARGES AND SPIN POPULATIONS
-------------------------------------------
   0 N :   -0.136187    0.662431
   1 O :    0.136187    0.337569

  Mayer bond orders larger than 0.100000
B(  0-N ,  1-O ) :   2.2421

FINAL SINGLE POINT ENERGY      -129.884430574207

DIPOLE MOMENT
-------------
                                X             Y             Z
Electronic contribution:      0.03791       0.00000       0.00000
Nuclear contribution   :      0.00455       0.00000       0.00000
                        -----------------------------------------
Total Dipole Moment    :      0.04246       0.00000       0.00000
                        -----------------------------------------
Magnitude (a.u.)       :      0.04246
Magnitude (Debye)      :      0.10792

Rotational constants in cm-1:     0.000000     1.717912     1.717912
Rotational constants in MHz :     0.000000 51501.718141 51501.718141

                             ****ORCA TERMINATED NORMALLY****
TOTAL RUN TIME: 0 days 0 hours 0 minutes 8 seconds 896 msec
