                         Program Version 4.2.1 -  RELEASE  -
|  1> # nitrogen_monoxide OPT with B3LYP/cc-pVDZ
|  2>
|  3> ! B3LYP cc-pVDZ TightSCF Opt PAL4
|  4>
|  5> * xyzfile 0 2 nitrogen_monoxide.xyz
|  6>
|  7>
|  8>                          ****END OF INPUT****
 Total Charge           Charge          ....    0
 Multiplicity           Mult            ....    2
 Number of Electrons    NEL             ....   15
FINAL SINGLE POINT ENERGY      -129.722865199528
FINAL SINGLE POINT ENERGY      -129.783333978389
FINAL SINGLE POINT ENERGY      -129.836881379004
FINAL SINGLE POINT ENERGY      -129.824328940931
FINAL SINGLE POINT ENERGY      -129.844295876180
FINAL SINGLE POINT ENERGY      -129.844783220278
FINAL SINGLE POINT ENERGY      -129.844829839303
FINAL SINGLE POINT ENERGY      -129.844830026468
                    ***********************HURRAY********************

CARTESIAN COORDINATES (ANGSTROEM)
---------------------------------
  N    -27.890421   12.166670    0.000000
  O    -26.736239   12.166670    0.000000

 Multiplicity           Mult            ....    2
 Number of Electrons    NEL             ....   15
 Basis Dimension        Dim             ....   28

ORBITAL ENERGIES
----------------
                 SPIN UP ORBITALS
  NO   OCC          E(Eh)            E(eV)
   0   1.0000     -19.270825      -524.3858
   1   1.0000     -14.457686      -393.4136
   2   1.0000      -1.238681       -33.7062
   3   1.0000      -0.678962       -18.4755
   4   1.0000      -0.525694       -14.3049
   5   1.0000      -0.499085       -13.5808
   6   1.0000      -0.472977       -12.8704
   7   1.0000      -0.205932        -5.6037
   8   0.0000      -0.095255        -2.5920
   9   0.0000       0.328774         8.9464
  10   0.0000       0.661717        18.0062
  11   0.0000       0.675615        18.3844
  12   0.0000       0.693048        18.8588

                 SPIN DOWN ORBITALS
  NO   OCC          E(Eh)            E(eV)
   0   1.0000     -19.260604      -524.1077
   1   1.0000     -14.442304      -392.9951
   2   1.0000      -1.216764       -33.1098
   3   1.0000      -0.641938       -17.4680
   4   1.0000      -0.488784       -13.3005
   5   1.0000      -0.451667       -12.2905
   6   1.0000      -0.448588       -12.2067
   7   0.0000      -0.078855        -2.1457
   8   0.0000      -0.035855        -0.9757
   9   0.0000       0.344270         9.3681
  10   0.0000       0.685762        18.6605
  11   0.0000       0.705407        19.1951

MULLIKEN ATOMIC CHARGES AND SPIN POPULATIONS
--------------------------------------------
   0 N :    0.031890    0.691057
   1 O :   -0.031890    0.308943
Sum of atomic charges         :   -0.0000000

LOEWDIN ATOMIC CHARGES AND SPIN POPULATIONS
-------------------------------------------
   0 N :   -0.062597    0.672121
   1 O :    0.062597    0.327879

  Mayer bond orders larger than 0.100000
B(  0-N ,  1-O ) :   2.2608

FINAL SINGLE POINT ENERGY      -129.844831036107

DIPOLE MOMENT
-------------
                                X             Y             Z
Electronic contribution:      0.02438       0.00000      -0.00000
Nuclear contribution   :      0.00458       0.00000       0.00000
                        -----------------------------------------
Total Dipole Moment    :      0.02896       0.00000      -0.00000
                        -----------------------------------------
Magnitude (a.u.)       :      0.02896
Magnitude (Debye)      :      0.07362

Rotational constants in cm-1:     0.000000     1.694410     1.694410
Rotational constants in MHz :     0.000000 50797.143953 50797.143953

                             ****ORCA TERMINATED NORMALLY****
TOTAL RUN TIME: 0 days 0 hours 0 minutes 23 seconds 1 msec
