                         Program Version 4.2.1 -  RELEASE  -
|  1> # nitrogen_monoxide DLPNO-CCSD/aug-cc-pVTZ SPE
|  2>
|  3> ! DLPNO-CCSD aug-cc-pVTZ aug-cc-pVTZ/C TightSCF PAL4
|  4>
|  5> * xyzfile 0 2 nitrogen_monoxide_MP2_aug-cc-pVTZ_OPT.xyz
|  6>
|  7>
|  8>                          ****END OF INPUT****

CARTESIAN COORDINATES (ANGSTROEM)
---------------------------------
  N    -27.881903   12.166670    0.000000
  O    -26.744757   12.166670    0.000000

 Total Charge           Charge          ....    0
 Multiplicity           Mult            ....    2
 Number of Electrons    NEL             ....   15
 Basis Dimension        Dim             ....   92

ORBITAL ENERGIES
----------------
                 SPIN UP ORBITALS
  NO   OCC          E(Eh)            E(eV)
   0   1.0000     -20.703676      -563.3757
   1   1.0000     -15.732545      -428.1043
   2   1.0000      -1.628883       -44.3242
   3   1.0000      -0.968760       -26.3613
   4   1.0000      -0.796958       -21.6863
   5   1.0000      -0.703786       -19.1510
   6   1.0000      -0.658147       -17.9091
   7   1.0000      -0.421846       -11.4790
   8   0.0000       0.075273         2.0483
   9   0.0000       0.084459         2.2983
  10   0.0000       0.118750         3.2313
  11   0.0000       0.124766         3.3951
  12   0.0000       0.134533         3.6608

                 SPIN DOWN ORBITALS
  NO   OCC          E(Eh)            E(eV)
   0   1.0000     -20.691864      -563.0542
   1   1.0000     -15.701198      -427.2513
   2   1.0000      -1.590573       -43.2817
   3   1.0000      -0.885382       -24.0925
   4   1.0000      -0.663004       -18.0413
   5   1.0000      -0.656621       -17.8676
   6   1.0000      -0.618726       -16.8364
   7   0.0000       0.084978         2.3124
   8   0.0000       0.086358         2.3499
   9   0.0000       0.106169         2.8890
  10   0.0000       0.121989         3.3195
  11   0.0000       0.147932         4.0254

E(0)                                       ...   -129.292368630
E(0)                                       ...   -129.292368630
E(CORR)(strong-pairs)                      ...     -0.411751130
E(CORR)(weak-pairs)                        ...     -0.001903205
E(CORR)(corrected)                         ...     -0.413654335
E(TOT)                                     ...   -129.706022964

MULLIKEN ATOMIC CHARGES AND SPIN DENSITIES
------------------------------------------
   0 N :   -0.011805    0.687547
   1 O :    0.011805    0.312453
Sum of atomic charges       :   -0.0000000

LOEWDIN ATOMIC CHARGES AND SPIN DENSITIES
-----------------------------------------
   0 N :   -0.107248    0.608363
   1 O :    0.107248    0.391637

  Mayer bond orders larger than 0.100000
B(  0-N ,  1-O ) :   1.7641

FINAL SINGLE POINT ENERGY      -129.706022964464

DIPOLE MOMENT
-------------
                                X             Y             Z
Electronic contribution:      0.12378      -0.00086      -0.00011
Nuclear contribution   :      0.00451       0.00000       0.00000
                        -----------------------------------------
Total Dipole Moment    :      0.12829      -0.00086      -0.00011
                        -----------------------------------------
Magnitude (a.u.)       :      0.12829
Magnitude (Debye)      :      0.32610

Rotational constants in cm-1:     0.000000     1.745556     1.745556
Rotational constants in MHz :     0.000000 52330.457168 52330.457168

                             ****ORCA TERMINATED NORMALLY****
TOTAL RUN TIME: 0 days 0 hours 1 minutes 30 seconds 889 msec
