                         Program Version 4.2.1 -  RELEASE  -
|  1> # methanol MP2/aug-cc-pVTZ Optimization
|  2>
|  3> ! MP2 aug-cc-pVTZ TightSCF Opt PAL4
|  4> %maxcore 1000
|  5>
|  6> * xyzfile 0 1 methanol_B3LYP_cc-pVTZ_OPT.xyz
|  7>
|  8>
|  9>                          ****END OF INPUT****
 Total Charge           Charge          ....    0
 Multiplicity           Mult            ....    1
 Number of Electrons    NEL             ....   18
MP2 TOTAL ENERGY:     -115.528944584 Eh
FINAL SINGLE POINT ENERGY      -115.528944584482
MP2 TOTAL ENERGY:     -115.528992001 Eh
FINAL SINGLE POINT ENERGY      -115.528992000627
MP2 TOTAL ENERGY:     -115.529004889 Eh
FINAL SINGLE POINT ENERGY      -115.529004889242
MP2 TOTAL ENERGY:     -115.529007777 Eh
FINAL SINGLE POINT ENERGY      -115.529007777209
                    ***********************HURRAY********************

CARTESIAN COORDINATES (ANGSTROEM)
---------------------------------
  O      1.429370   -0.010339    0.000000
  C      0.006119    0.021303    0.000000
  H      1.747116    0.896729   -0.000000
  H     -0.326167   -1.012506   -0.000000
  H     -0.389889    0.514381    0.889287
  H     -0.389889    0.514381   -0.889287

 Multiplicity           Mult            ....    1
 Number of Electrons    NEL             ....   18
 Basis Dimension        Dim             ....  184

ORBITAL ENERGIES
----------------

  NO   OCC          E(Eh)            E(eV)
   0   2.0000     -20.559086      -559.4412
   1   2.0000     -11.270990      -306.6992
   2   2.0000      -1.356381       -36.9090
   3   2.0000      -0.926312       -25.2062
   4   2.0000      -0.690465       -18.7885
   5   2.0000      -0.620625       -16.8881
   6   2.0000      -0.592530       -16.1236
   7   2.0000      -0.504872       -13.7383
   8   2.0000      -0.452180       -12.3044
   9   0.0000       0.028496         0.7754
  10   0.0000       0.042988         1.1698
  11   0.0000       0.046563         1.2670
  12   0.0000       0.052986         1.4418
  13   0.0000       0.098956         2.6927

MULLIKEN ATOMIC CHARGES
-----------------------
   0 O :   -0.448216
   1 C :   -0.728538
   2 H :    0.191409
   3 H :    0.345043
   4 H :    0.320151
   5 H :    0.320151
Sum of atomic charges:   -0.0000000

LOEWDIN ATOMIC CHARGES
----------------------
   0 O :    0.788520
   1 C :    0.303278
   2 H :   -0.511288
   3 H :   -0.198458
   4 H :   -0.191026
   5 H :   -0.191026

  Mayer bond orders larger than 0.100000
B(  0-O ,  1-C ) :   0.8545 B(  0-O ,  2-H ) :   0.9301 B(  1-C ,  3-H ) :   0.8495
B(  1-C ,  4-H ) :   0.8461 B(  1-C ,  5-H ) :   0.8461

MP2 TOTAL ENERGY:     -115.529007918 Eh
FINAL SINGLE POINT ENERGY      -115.529007917933

DIPOLE MOMENT
-------------
                                X             Y             Z
Electronic contribution:      1.75816      -0.19410       0.00000
Nuclear contribution   :     -2.15084       0.73754      -0.00000
                        -----------------------------------------
Total Dipole Moment    :     -0.39267       0.54345      -0.00000
                        -----------------------------------------
Magnitude (a.u.)       :      0.67047
Magnitude (Debye)      :      1.70420

Rotational constants in cm-1:     4.289524     0.825349     0.796442
Rotational constants in MHz : 128596.688597 24743.347404 23876.737183

                             ****ORCA TERMINATED NORMALLY****
TOTAL RUN TIME: 0 days 0 hours 3 minutes 28 seconds 104 msec
