                         Program Version 4.2.1 -  RELEASE  -
|  1> # methanol OPT with B3LYP/cc-pVTZ
|  2>
|  3> ! B3LYP cc-pVTZ TightSCF Opt PAL4
|  4> %maxcore 1000
|  5>
|  6> * xyzfile 0 1 methanol_B3LYP_cc-pVDZ_OPT.xyz
|  7>
|  8>
|  9>                          ****END OF INPUT****
 Total Charge           Charge          ....    0
 Multiplicity           Mult            ....    1
 Number of Electrons    NEL             ....   18
FINAL SINGLE POINT ENERGY      -115.705546598490
FINAL SINGLE POINT ENERGY      -115.705917609337
FINAL SINGLE POINT ENERGY      -115.705940128362
FINAL SINGLE POINT ENERGY      -115.705946920236
                    ***********************HURRAY********************

CARTESIAN COORDINATES (ANGSTROEM)
---------------------------------
  O      1.430595   -0.008107    0.000000
  C      0.011217    0.021488    0.000000
  H      1.755743    0.895941   -0.000000
  H     -0.327644   -1.013165   -0.000000
  H     -0.396626    0.513897    0.889777
  H     -0.396626    0.513897   -0.889777

 Multiplicity           Mult            ....    1
 Number of Electrons    NEL             ....   18
 Basis Dimension        Dim             ....  116

ORBITAL ENERGIES
----------------

  NO   OCC          E(Eh)            E(eV)
   0   2.0000     -19.119979      -520.2811
   1   2.0000     -10.210081      -277.8304
   2   2.0000      -1.015027       -27.6203
   3   2.0000      -0.680912       -18.5286
   4   2.0000      -0.505847       -13.7648
   5   2.0000      -0.437426       -11.9030
   6   2.0000      -0.423901       -11.5349
   7   2.0000      -0.335599        -9.1321
   8   2.0000      -0.273887        -7.4528
   9   0.0000       0.032626         0.8878
  10   0.0000       0.068978         1.8770
  11   0.0000       0.113980         3.1016
  12   0.0000       0.115284         3.1370
  13   0.0000       0.159814         4.3488

MULLIKEN ATOMIC CHARGES
-----------------------
   0 O :   -0.341363
   1 C :   -0.050505
   2 H :    0.195386
   3 H :    0.092436
   4 H :    0.052023
   5 H :    0.052023
Sum of atomic charges:   -0.0000000

LOEWDIN ATOMIC CHARGES
----------------------
   0 O :    0.340245
   1 C :   -0.008323
   2 H :   -0.203947
   3 H :   -0.031788
   4 H :   -0.048094
   5 H :   -0.048094

  Mayer bond orders larger than 0.100000
B(  0-O ,  1-C ) :   1.0281 B(  0-O ,  2-H ) :   1.0186 B(  1-C ,  3-H ) :   0.9660
B(  1-C ,  4-H ) :   0.9555 B(  1-C ,  5-H ) :   0.9555

FINAL SINGLE POINT ENERGY      -115.705947717150

DIPOLE MOMENT
-------------
                                X             Y             Z
Electronic contribution:      1.83082      -0.19405       0.00000
Nuclear contribution   :     -2.16551       0.73114      -0.00000
                        -----------------------------------------
Total Dipole Moment    :     -0.33469       0.53709      -0.00000
                        -----------------------------------------
Magnitude (a.u.)       :      0.63284
Magnitude (Debye)      :      1.60854

Rotational constants in cm-1:     4.293707     0.825638     0.796988
Rotational constants in MHz : 128722.089810 24752.007773 23893.095769

                             ****ORCA TERMINATED NORMALLY****
TOTAL RUN TIME: 0 days 0 hours 0 minutes 24 seconds 25 msec
