                         Program Version 4.2.1 -  RELEASE  -
|  1> # methanol DLPNO-CCSD/aug-cc-pVTZ SPE
|  2>
|  3> ! DLPNO-CCSD aug-cc-pVTZ aug-cc-pVTZ/C TightSCF PAL4
|  4> %maxcore 1000
|  5>
|  6> * xyzfile 0 1 methanol_MP2_aug-cc-pVTZ_OPT.xyz
|  7>
|  8>
|  9>                          ****END OF INPUT****

CARTESIAN COORDINATES (ANGSTROEM)
---------------------------------
  O      1.429370   -0.010339    0.000000
  C      0.006119    0.021303    0.000000
  H      1.747116    0.896729   -0.000000
  H     -0.326167   -1.012506   -0.000000
  H     -0.389889    0.514381    0.889287
  H     -0.389889    0.514381   -0.889287

 Total Charge           Charge          ....    0
 Multiplicity           Mult            ....    1
 Number of Electrons    NEL             ....   18
 Basis Dimension        Dim             ....  184

ORBITAL ENERGIES
----------------

  NO   OCC          E(Eh)            E(eV)
   0   2.0000     -20.559086      -559.4412
   1   2.0000     -11.270988      -306.6992
   2   2.0000      -1.356380       -36.9090
   3   2.0000      -0.926311       -25.2062
   4   2.0000      -0.690465       -18.7885
   5   2.0000      -0.620624       -16.8880
   6   2.0000      -0.592529       -16.1235
   7   2.0000      -0.504872       -13.7383
   8   2.0000      -0.452179       -12.3044
   9   0.0000       0.028496         0.7754
  10   0.0000       0.042988         1.1698
  11   0.0000       0.046563         1.2670
  12   0.0000       0.052986         1.4418
  13   0.0000       0.098956         2.6927

E(0)                                       ...   -115.092038886
E(0)                                       ...   -115.092038886
E(CORR)(strong-pairs)                      ...     -0.453963447
E(CORR)(weak-pairs)                        ...     -0.000604958
E(CORR)(corrected)                         ...     -0.454568404
E(TOT)                                     ...   -115.546607290

MULLIKEN ATOMIC CHARGES
-----------------------
   0 O :   -0.431432
   1 C :   -0.818130
   2 H :    0.186102
   3 H :    0.368772
   4 H :    0.347344
   5 H :    0.347344
Sum of atomic charges:   -0.0000000

LOEWDIN ATOMIC CHARGES
----------------------
   0 O :    0.789709
   1 C :    0.298876
   2 H :   -0.510001
   3 H :   -0.197617
   4 H :   -0.190484
   5 H :   -0.190484

  Mayer bond orders larger than 0.100000
B(  0-O ,  1-C ) :   0.8781 B(  0-O ,  2-H ) :   0.9086 B(  1-C ,  3-H ) :   0.8165
B(  1-C ,  4-H ) :   0.8075 B(  1-C ,  5-H ) :   0.8075

FINAL SINGLE POINT ENERGY      -115.546607290388

DIPOLE MOMENT
-------------
                                X             Y             Z
Electronic contribution:      1.76997      -0.20277       0.00000
Nuclear contribution   :     -2.15084       0.73754      -0.00000
                        -----------------------------------------
Total Dipole Moment    :     -0.38087       0.53477      -0.00000
                        -----------------------------------------
Magnitude (a.u.)       :      0.65654
Magnitude (Debye)      :      1.66878

Rotational constants in cm-1:     4.289524     0.825349     0.796442
Rotational constants in MHz : 128596.688597 24743.347404 23876.737183

                             ****ORCA TERMINATED NORMALLY****
TOTAL RUN TIME: 0 days 0 hours 0 minutes 46 seconds 634 msec
