                         Program Version 4.2.1 -  RELEASE  -
|  1> # methanol OPT with B3LYP/cc-pVDZ
|  2>
|  3> ! B3LYP cc-pVDZ TightSCF Opt PAL4
|  4> %maxcore 1000
|  5>
|  6> * xyzfile 0 1 methanol.xyz
|  7>
|  8>
|  9>                          ****END OF INPUT****
 Total Charge           Charge          ....    0
 Multiplicity           Mult            ....    1
 Number of Electrons    NEL             ....   18
FINAL SINGLE POINT ENERGY      -115.654828644819
FINAL SINGLE POINT ENERGY      -115.656247744637
FINAL SINGLE POINT ENERGY      -115.656464110254
FINAL SINGLE POINT ENERGY      -115.656509443143
FINAL SINGLE POINT ENERGY      -115.656512910690
FINAL SINGLE POINT ENERGY      -115.656512991570
                    ***********************HURRAY********************

CARTESIAN COORDINATES (ANGSTROEM)
---------------------------------
  O      1.436105   -0.015170    0.000000
  C      0.020888    0.022159    0.000000
  H      1.751868    0.899572   -0.000000
  H     -0.330073   -1.021526   -0.000000
  H     -0.401063    0.519458    0.897499
  H     -0.401063    0.519458   -0.897499

 Multiplicity           Mult            ....    1
 Number of Electrons    NEL             ....   18
 Basis Dimension        Dim             ....   48

ORBITAL ENERGIES
----------------

  NO   OCC          E(Eh)            E(eV)
   0   2.0000     -19.126413      -520.4562
   1   2.0000     -10.223222      -278.1880
   2   2.0000      -1.007559       -27.4171
   3   2.0000      -0.671721       -18.2785
   4   2.0000      -0.496746       -13.5172
   5   2.0000      -0.427475       -11.6322
   6   2.0000      -0.414105       -11.2684
   7   2.0000      -0.324893        -8.8408
   8   2.0000      -0.260809        -7.0970
   9   0.0000       0.057864         1.5746
  10   0.0000       0.095217         2.5910
  11   0.0000       0.137834         3.7507
  12   0.0000       0.139283         3.7901
  13   0.0000       0.201200         5.4749

MULLIKEN ATOMIC CHARGES
-----------------------
   0 O :   -0.277353
   1 C :    0.097741
   2 H :    0.138051
   3 H :    0.030381
   4 H :    0.005590
   5 H :    0.005590
Sum of atomic charges:   -0.0000000

LOEWDIN ATOMIC CHARGES
----------------------
   0 O :   -0.042480
   1 C :   -0.040718
   2 H :    0.043440
   3 H :    0.025310
   4 H :    0.007224
   5 H :    0.007224

  Mayer bond orders larger than 0.100000
B(  0-O ,  1-C ) :   1.0976 B(  0-O ,  2-H ) :   1.0104 B(  1-C ,  3-H ) :   0.9823
B(  1-C ,  4-H ) :   0.9688 B(  1-C ,  5-H ) :   0.9688

FINAL SINGLE POINT ENERGY      -115.656512933767

DIPOLE MOMENT
-------------
                                X             Y             Z
Electronic contribution:      1.91153      -0.21547       0.00000
Nuclear contribution   :     -2.20189       0.74861      -0.00000
                        -----------------------------------------
Total Dipole Moment    :     -0.29036       0.53314      -0.00000
                        -----------------------------------------
Magnitude (a.u.)       :      0.60708
Magnitude (Debye)      :      1.54308

Rotational constants in cm-1:     4.210097     0.825909     0.796400
Rotational constants in MHz : 126215.521777 24760.137456 23875.464154

                             ****ORCA TERMINATED NORMALLY****
TOTAL RUN TIME: 0 days 0 hours 0 minutes 14 seconds 553 msec
