                         Program Version 4.2.1 -  RELEASE  -
|  1> # dimethyl_ether DLPNO-CCSD/aug-cc-pVTZ SPE
|  2>
|  3> ! DLPNO-CCSD aug-cc-pVTZ aug-cc-pVTZ/C TightSCF PAL8
|  4> %maxcore 1000
|  5>
|  6> * xyzfile 0 1 dimethyl_ether_MP2_aug-cc-pVTZ_OPT.xyz
|  7>
|  8>
|  9>                          ****END OF INPUT****

CARTESIAN COORDINATES (ANGSTROEM)
---------------------------------
  C      1.423161    0.000448    0.000810
  O      0.011345    0.008039    0.013887
  C     -0.473514    0.671060    1.162274
  H      1.822902    1.019917   -0.011599
  H      1.738092   -0.519354   -0.899693
  H      1.822879   -0.520186    0.877408
  H     -0.136300    0.172673    2.077236
  H     -1.558785    0.646143    1.119301
  H     -0.136439    1.712681    1.188037

 Total Charge           Charge          ....    0
 Multiplicity           Mult            ....    1
 Number of Electrons    NEL             ....   26
 Basis Dimension        Dim             ....  276

ORBITAL ENERGIES
----------------

  NO   OCC          E(Eh)            E(eV)
   0   2.0000     -20.556991      -559.3842
   1   2.0000     -11.268345      -306.6273
   2   2.0000     -11.268326      -306.6267
   3   2.0000      -1.372731       -37.3539
   4   2.0000      -0.967390       -26.3240
   5   2.0000      -0.876116       -23.8403
   6   2.0000      -0.659957       -17.9583
   7   2.0000      -0.650805       -17.7093
   8   2.0000      -0.638068       -17.3627
   9   2.0000      -0.549911       -14.9638
  10   2.0000      -0.525686       -14.3046
  11   2.0000      -0.483972       -13.1695
  12   2.0000      -0.425409       -11.5760
  13   0.0000       0.030378         0.8266
  14   0.0000       0.040474         1.1014
  15   0.0000       0.045494         1.2380
  16   0.0000       0.047398         1.2898
  17   0.0000       0.062833         1.7098

E(0)                                       ...   -154.128513514
E(0)                                       ...   -154.128513514
E(CORR)(strong-pairs)                      ...     -0.637013823
E(CORR)(weak-pairs)                        ...     -0.001199084
E(CORR)(corrected)                         ...     -0.638212907
E(TOT)                                     ...   -154.766726421

MULLIKEN ATOMIC CHARGES
-----------------------
   0 C :   -0.883036
   1 O :   -0.418140
   2 C :   -0.883038
   3 H :    0.352885
   4 H :    0.386344
   5 H :    0.352877
   6 H :    0.352890
   7 H :    0.386344
   8 H :    0.352875
Sum of atomic charges:   -0.0000000

LOEWDIN ATOMIC CHARGES
----------------------
   0 C :    0.276994
   1 O :    0.548952
   2 C :    0.277009
   3 H :   -0.182089
   4 H :   -0.187298
   5 H :   -0.182088
   6 H :   -0.182091
   7 H :   -0.187298
   8 H :   -0.182089

  Mayer bond orders larger than 0.100000
B(  0-C ,  1-O ) :   0.9384 B(  0-C ,  3-H ) :   0.7910 B(  0-C ,  4-H ) :   0.8220
B(  0-C ,  5-H ) :   0.7910 B(  1-O ,  2-C ) :   0.9384 B(  2-C ,  6-H ) :   0.7910
B(  2-C ,  7-H ) :   0.8220 B(  2-C ,  8-H ) :   0.7910

FINAL SINGLE POINT ENERGY      -154.766726420717

DIPOLE MOMENT
-------------
                                X             Y             Z
Electronic contribution:     -1.17449      -0.83044      -1.43840
Nuclear contribution   :      1.47463       1.04267       1.80602
                        -----------------------------------------
Total Dipole Moment    :      0.30014       0.21223       0.36762
                        -----------------------------------------
Magnitude (a.u.)       :      0.51987
Magnitude (Debye)      :      1.32142

Rotational constants in cm-1:     1.286004     0.339768     0.299167
Rotational constants in MHz : 38553.444095 10185.980426  8968.803123

                             ****ORCA TERMINATED NORMALLY****
TOTAL RUN TIME: 0 days 0 hours 1 minutes 7 seconds 756 msec
