                         Program Version 4.2.1 -  RELEASE  -
|  1> # dimethyl_ether OPT with B3LYP/cc-pVTZ
|  2>
|  3> ! B3LYP cc-pVTZ TightSCF Opt PAL16
|  4> %maxcore 1000
|  5>
|  6> * xyzfile 0 1 dimethyl_ether_B3LYP_cc-pVDZ_OPT.xyz
|  7>
|  8>
|  9>                          ****END OF INPUT****
 Total Charge           Charge          ....    0
 Multiplicity           Mult            ....    1
 Number of Electrons    NEL             ....   26
FINAL SINGLE POINT ENERGY      -154.993830972158
FINAL SINGLE POINT ENERGY      -154.994353218292
FINAL SINGLE POINT ENERGY      -154.994362951133
FINAL SINGLE POINT ENERGY      -154.994366026874
                    ***********************HURRAY********************

CARTESIAN COORDINATES (ANGSTROEM)
---------------------------------
  C      1.432719   -0.002813   -0.005022
  O      0.023678    0.016780    0.028992
  C     -0.483222    0.674751    1.168339
  H      1.851529    1.011759   -0.026237
  H      1.731230   -0.526070   -0.912115
  H      1.850668   -0.530060    0.862927
  H     -0.160781    0.183276    2.095686
  H     -1.570163    0.639859    1.109429
  H     -0.162319    1.723938    1.205662

 Multiplicity           Mult            ....    1
 Number of Electrons    NEL             ....   26
 Basis Dimension        Dim             ....  174

ORBITAL ENERGIES
----------------

  NO   OCC          E(Eh)            E(eV)
   0   2.0000     -19.126732      -520.4648
   1   2.0000     -10.210062      -277.8299
   2   2.0000     -10.210012      -277.8286
   3   2.0000      -1.031809       -28.0770
   4   2.0000      -0.720473       -19.6051
   5   2.0000      -0.637024       -17.3343
   6   2.0000      -0.476753       -12.9731
   7   2.0000      -0.470707       -12.8086
   8   2.0000      -0.469604       -12.7786
   9   2.0000      -0.395255       -10.7554
  10   2.0000      -0.377547       -10.2736
  11   2.0000      -0.320169        -8.7122
  12   2.0000      -0.258649        -7.0382
  13   0.0000       0.039904         1.0859
  14   0.0000       0.076217         2.0740
  15   0.0000       0.100284         2.7289
  16   0.0000       0.101428         2.7600
  17   0.0000       0.103483         2.8159

MULLIKEN ATOMIC CHARGES
-----------------------
   0 C :   -0.065885
   1 O :   -0.282091
   2 C :   -0.076638
   3 H :    0.051795
   4 H :    0.097146
   5 H :    0.055197
   6 H :    0.052923
   7 H :    0.108404
   8 H :    0.059149
Sum of atomic charges:   -0.0000000

LOEWDIN ATOMIC CHARGES
----------------------
   0 C :   -0.022624
   1 O :    0.290422
   2 C :   -0.023191
   3 H :   -0.045792
   4 H :   -0.031427
   5 H :   -0.045461
   6 H :   -0.045747
   7 H :   -0.030974
   8 H :   -0.045206

  Mayer bond orders larger than 0.100000
B(  0-C ,  1-O ) :   1.0254 B(  0-C ,  3-H ) :   0.9437 B(  0-C ,  4-H ) :   0.9762
B(  0-C ,  5-H ) :   0.9482 B(  1-O ,  2-C ) :   1.0257 B(  2-C ,  6-H ) :   0.9449
B(  2-C ,  7-H ) :   0.9692 B(  2-C ,  8-H ) :   0.9457

FINAL SINGLE POINT ENERGY      -154.994366385522

DIPOLE MOMENT
-------------
                                X             Y             Z
Electronic contribution:     -1.16525      -0.82416      -1.43067
Nuclear contribution   :      1.44093       1.01756       1.76380
                        -----------------------------------------
Total Dipole Moment    :      0.27568       0.19340       0.33312
                        -----------------------------------------
Magnitude (a.u.)       :      0.47368
Magnitude (Debye)      :      1.20401

Rotational constants in cm-1:     1.318237     0.332980     0.295591
Rotational constants in MHz : 39519.737384  9982.485519  8861.584897

                             ****ORCA TERMINATED NORMALLY****
TOTAL RUN TIME: 0 days 0 hours 0 minutes 33 seconds 821 msec
