                         Program Version 4.2.1 -  RELEASE  -
|  1> # dimethyl_ether MP2/aug-cc-pVTZ Optimization
|  2>
|  3> ! MP2 aug-cc-pVTZ TightSCF Opt PAL16
|  4> %maxcore 1000
|  5>
|  6> * xyzfile 0 1 dimethyl_ether_B3LYP_cc-pVTZ_OPT.xyz
|  7>
|  8>
|  9>                          ****END OF INPUT****
 Total Charge           Charge          ....    0
 Multiplicity           Mult            ....    1
 Number of Electrons    NEL             ....   26
MP2 TOTAL ENERGY:     -154.737692610 Eh
FINAL SINGLE POINT ENERGY      -154.737692609727
MP2 TOTAL ENERGY:     -154.737858597 Eh
FINAL SINGLE POINT ENERGY      -154.737858597389
MP2 TOTAL ENERGY:     -154.737892572 Eh
FINAL SINGLE POINT ENERGY      -154.737892572304
MP2 TOTAL ENERGY:     -154.737896835 Eh
FINAL SINGLE POINT ENERGY      -154.737896834591
                    ***********************HURRAY********************

CARTESIAN COORDINATES (ANGSTROEM)
---------------------------------
  C      1.423161    0.000448    0.000810
  O      0.011345    0.008039    0.013887
  C     -0.473514    0.671060    1.162274
  H      1.822902    1.019917   -0.011599
  H      1.738092   -0.519354   -0.899693
  H      1.822879   -0.520186    0.877408
  H     -0.136300    0.172673    2.077236
  H     -1.558785    0.646143    1.119301
  H     -0.136439    1.712681    1.188037

 Multiplicity           Mult            ....    1
 Number of Electrons    NEL             ....   26
 Basis Dimension        Dim             ....  276

ORBITAL ENERGIES
----------------

  NO   OCC          E(Eh)            E(eV)
   0   2.0000     -20.556985      -559.3840
   1   2.0000     -11.268346      -306.6273
   2   2.0000     -11.268327      -306.6268
   3   2.0000      -1.372729       -37.3539
   4   2.0000      -0.967390       -26.3240
   5   2.0000      -0.876116       -23.8403
   6   2.0000      -0.659957       -17.9583
   7   2.0000      -0.650805       -17.7093
   8   2.0000      -0.638067       -17.3627
   9   2.0000      -0.549911       -14.9638
  10   2.0000      -0.525686       -14.3046
  11   2.0000      -0.483971       -13.1695
  12   2.0000      -0.425409       -11.5760
  13   0.0000       0.030378         0.8266
  14   0.0000       0.040474         1.1014
  15   0.0000       0.045494         1.2380
  16   0.0000       0.047398         1.2898
  17   0.0000       0.062833         1.7098

MULLIKEN ATOMIC CHARGES
-----------------------
   0 C :   -0.821761
   1 O :   -0.421963
   2 C :   -0.821767
   3 H :    0.335598
   4 H :    0.361539
   5 H :    0.335603
   6 H :    0.335605
   7 H :    0.361539
   8 H :    0.335605
Sum of atomic charges:    0.0000000

LOEWDIN ATOMIC CHARGES
----------------------
   0 C :    0.280610
   1 O :    0.545568
   2 C :    0.280625
   3 H :   -0.182701
   4 H :   -0.188000
   5 H :   -0.182700
   6 H :   -0.182702
   7 H :   -0.188000
   8 H :   -0.182701

  Mayer bond orders larger than 0.100000
B(  0-C ,  1-O ) :   0.9208 B(  0-C ,  3-H ) :   0.8235 B(  0-C ,  4-H ) :   0.8642
B(  0-C ,  5-H ) :   0.8235 B(  1-O ,  2-C ) :   0.9208 B(  2-C ,  6-H ) :   0.8235
B(  2-C ,  7-H ) :   0.8642 B(  2-C ,  8-H ) :   0.8235

MP2 TOTAL ENERGY:     -154.737897420 Eh
FINAL SINGLE POINT ENERGY      -154.737897419988

DIPOLE MOMENT
-------------
                                X             Y             Z
Electronic contribution:     -1.16680      -0.82500      -1.42899
Nuclear contribution   :      1.47463       1.04267       1.80602
                        -----------------------------------------
Total Dipole Moment    :      0.30782       0.21766       0.37703
                        -----------------------------------------
Magnitude (a.u.)       :      0.53319
Magnitude (Debye)      :      1.35525

Rotational constants in cm-1:     1.286004     0.339768     0.299167
Rotational constants in MHz : 38553.444095 10185.980426  8968.803123

                             ****ORCA TERMINATED NORMALLY****
TOTAL RUN TIME: 0 days 0 hours 7 minutes 57 seconds 278 msec
