                         Program Version 4.2.1 -  RELEASE  -
|  1> # dimethyl_ether OPT with B3LYP/cc-pVDZ
|  2>
|  3> ! B3LYP cc-pVDZ TightSCF Opt PAL16
|  4> %maxcore 1000
|  5>
|  6> * xyzfile 0 1 dimethyl_ether.xyz
|  7>
|  8>
|  9>                          ****END OF INPUT****
 Total Charge           Charge          ....    0
 Multiplicity           Mult            ....    1
 Number of Electrons    NEL             ....   26
FINAL SINGLE POINT ENERGY      -154.931684033063
FINAL SINGLE POINT ENERGY      -154.933777214450
FINAL SINGLE POINT ENERGY      -154.933916678038
FINAL SINGLE POINT ENERGY      -154.933948922022
FINAL SINGLE POINT ENERGY      -154.933953785497
                    ***********************HURRAY********************

CARTESIAN COORDINATES (ANGSTROEM)
---------------------------------
  C      1.428134   -0.003145   -0.005582
  O      0.019947    0.013739    0.024744
  C     -0.482531    0.672313    1.164386
  H      1.856110    1.021256   -0.026477
  H      1.733109   -0.531623   -0.921318
  H      1.856243   -0.533287    0.871516
  H     -0.158424    0.179088    2.105005
  H     -1.581272    0.639779    1.107600
  H     -0.157974    1.733300    1.207786

 Multiplicity           Mult            ....    1
 Number of Electrons    NEL             ....   26
 Basis Dimension        Dim             ....   72

ORBITAL ENERGIES
----------------

  NO   OCC          E(Eh)            E(eV)
   0   2.0000     -19.134407      -520.6737
   1   2.0000     -10.224613      -278.2259
   2   2.0000     -10.224473      -278.2221
   3   2.0000      -1.029055       -28.0020
   4   2.0000      -0.715043       -19.4573
   5   2.0000      -0.630656       -17.1610
   6   2.0000      -0.471553       -12.8316
   7   2.0000      -0.463774       -12.6199
   8   2.0000      -0.462017       -12.5721
   9   2.0000      -0.387321       -10.5395
  10   2.0000      -0.370754       -10.0887
  11   2.0000      -0.312954        -8.5159
  12   2.0000      -0.250447        -6.8150
  13   0.0000       0.063465         1.7270
  14   0.0000       0.105206         2.8628
  15   0.0000       0.121433         3.3044
  16   0.0000       0.128174         3.4878
  17   0.0000       0.133630         3.6362

MULLIKEN ATOMIC CHARGES
-----------------------
   0 C :    0.121160
   1 O :   -0.309823
   2 C :    0.118032
   3 H :    0.003628
   4 H :    0.026147
   5 H :    0.004184
   6 H :    0.001848
   7 H :    0.030344
   8 H :    0.004480
Sum of atomic charges:   -0.0000000

LOEWDIN ATOMIC CHARGES
----------------------
   0 C :   -0.034670
   1 O :   -0.011221
   2 C :   -0.035324
   3 H :    0.007546
   4 H :    0.025170
   5 H :    0.007651
   6 H :    0.007261
   7 H :    0.025768
   8 H :    0.007819

  Mayer bond orders larger than 0.100000
B(  0-C ,  1-O ) :   1.0632 B(  0-C ,  3-H ) :   0.9606 B(  0-C ,  4-H ) :   0.9807
B(  0-C ,  5-H ) :   0.9607 B(  1-O ,  2-C ) :   1.0655 B(  2-C ,  6-H ) :   0.9600
B(  2-C ,  7-H ) :   0.9802 B(  2-C ,  8-H ) :   0.9605

FINAL SINGLE POINT ENERGY      -154.933953905865

DIPOLE MOMENT
-------------
                                X             Y             Z
Electronic contribution:     -1.20034      -0.84693      -1.46991
Nuclear contribution   :      1.46013       1.03228       1.78584
                        -----------------------------------------
Total Dipole Moment    :      0.25979       0.18535       0.31593
                        -----------------------------------------
Magnitude (a.u.)       :      0.44906
Magnitude (Debye)      :      1.14142

Rotational constants in cm-1:     1.298789     0.333347     0.295462
Rotational constants in MHz : 38936.705235  9993.496121  8857.723868

                             ****ORCA TERMINATED NORMALLY****
TOTAL RUN TIME: 0 days 0 hours 0 minutes 26 seconds 558 msec
