                         Program Version 4.2.1 -  RELEASE  -
|  1> # hydrogen_sulfide MP2/aug-cc-pVTZ Optimization
|  2>
|  3> ! MP2 aug-cc-pVTZ TightSCF Opt PAL8
|  4> %maxcore 1000
|  5>
|  6> * xyzfile 0 1 hydrogen_sulfide_B3LYP_cc-pVTZ_OPT.xyz
|  7>
|  8>
|  9>                          ****END OF INPUT****
 Total Charge           Charge          ....    0
 Multiplicity           Mult            ....    1
 Number of Electrons    NEL             ....   18
MP2 TOTAL ENERGY:     -398.908736643 Eh
FINAL SINGLE POINT ENERGY      -398.908736642747
MP2 TOTAL ENERGY:     -398.908812244 Eh
FINAL SINGLE POINT ENERGY      -398.908812244366
MP2 TOTAL ENERGY:     -398.908817828 Eh
FINAL SINGLE POINT ENERGY      -398.908817827621
                    ***********************HURRAY********************

CARTESIAN COORDINATES (ANGSTROEM)
---------------------------------
  S     -0.054329   -0.076835    0.000000
  H     -0.305859    1.235567    0.000000
  H      1.266858    0.123488    0.000000

 Multiplicity           Mult            ....    1
 Number of Electrons    NEL             ....   18
 Basis Dimension        Dim             ....   96

ORBITAL ENERGIES
----------------

  NO   OCC          E(Eh)            E(eV)
   0   2.0000     -91.966693     -2502.5410
   1   2.0000      -8.968914      -244.0566
   2   2.0000      -6.650205      -180.9613
   3   2.0000      -6.649432      -180.9403
   4   2.0000      -6.648132      -180.9049
   5   2.0000      -0.982544       -26.7364
   6   2.0000      -0.590042       -16.0559
   7   2.0000      -0.501791       -13.6544
   8   2.0000      -0.385505       -10.4901
   9   0.0000       0.028791         0.7835
  10   0.0000       0.049400         1.3442
  11   0.0000       0.090570         2.4645
  12   0.0000       0.100236         2.7276
  13   0.0000       0.109138         2.9698

MULLIKEN ATOMIC CHARGES
-----------------------
   0 S :   -0.362839
   1 H :    0.181419
   2 H :    0.181420
Sum of atomic charges:   -0.0000000

LOEWDIN ATOMIC CHARGES
----------------------
   0 S :    1.305331
   1 H :   -0.652665
   2 H :   -0.652666

  Mayer bond orders larger than 0.100000
B(  0-S ,  1-H ) :   0.9621 B(  0-S ,  2-H ) :   0.9621

MP2 TOTAL ENERGY:     -398.908817802 Eh
FINAL SINGLE POINT ENERGY      -398.908817802480

DIPOLE MOMENT
-------------
                                X             Y             Z
Electronic contribution:     -0.71653      -1.01333      -0.00000
Nuclear contribution   :      0.94507       1.33653       0.00000
                        -----------------------------------------
Total Dipole Moment    :      0.22854       0.32321      -0.00000
                        -----------------------------------------
Magnitude (a.u.)       :      0.39584
Magnitude (Debye)      :      1.00616

Rotational constants in cm-1:    10.357175     9.015168     4.819844
Rotational constants in MHz : 310500.288393 270267.946337 144495.291345

                             ****ORCA TERMINATED NORMALLY****
TOTAL RUN TIME: 0 days 0 hours 0 minutes 42 seconds 340 msec
