                         Program Version 4.2.1 -  RELEASE  -
|  1> # hydrogen_sulfide OPT with B3LYP/cc-pVDZ
|  2>
|  3> ! B3LYP cc-pVDZ TightSCF Opt PAL8
|  4> %maxcore 1000
|  5>
|  6> * xyzfile 0 1 hydrogen_sulfide.xyz
|  7>
|  8>
|  9>                          ****END OF INPUT****
 Total Charge           Charge          ....    0
 Multiplicity           Mult            ....    1
 Number of Electrons    NEL             ....   18
FINAL SINGLE POINT ENERGY      -399.341360788753
FINAL SINGLE POINT ENERGY      -399.341369912331
FINAL SINGLE POINT ENERGY      -399.341370851606
                    ***********************HURRAY********************

CARTESIAN COORDINATES (ANGSTROEM)
---------------------------------
  S     -0.060104   -0.084760    0.000000
  H     -0.316149    1.248765    0.000000
  H      1.282923    0.118215    0.000000

 Multiplicity           Mult            ....    1
 Number of Electrons    NEL             ....   18
 Basis Dimension        Dim             ....   28

ORBITAL ENERGIES
----------------

  NO   OCC          E(Eh)            E(eV)
   0   2.0000     -88.880506     -2418.5615
   1   2.0000      -7.942417      -216.1241
   2   2.0000      -5.906631      -160.7276
   3   2.0000      -5.903547      -160.6437
   4   2.0000      -5.895979      -160.4377
   5   2.0000      -0.734722       -19.9928
   6   2.0000      -0.436250       -11.8710
   7   2.0000      -0.359842        -9.7918
   8   2.0000      -0.253379        -6.8948
   9   0.0000       0.027733         0.7546
  10   0.0000       0.031649         0.8612
  11   0.0000       0.308606         8.3976
  12   0.0000       0.372473        10.1355
  13   0.0000       0.492963        13.4142

MULLIKEN ATOMIC CHARGES
-----------------------
   0 S :   -0.153233
   1 H :    0.077062
   2 H :    0.076170
Sum of atomic charges:    0.0000000

LOEWDIN ATOMIC CHARGES
----------------------
   0 S :    0.004302
   1 H :   -0.001959
   2 H :   -0.002343

  Mayer bond orders larger than 0.100000
B(  0-S ,  1-H ) :   0.9933 B(  0-S ,  2-H ) :   0.9938

FINAL SINGLE POINT ENERGY      -399.341370863987

DIPOLE MOMENT
-------------
                                X             Y             Z
Electronic contribution:     -0.68441      -0.96785      -0.00000
Nuclear contribution   :      0.96038       1.35754       0.00000
                        -----------------------------------------
Total Dipole Moment    :      0.27597       0.38969      -0.00000
                        -----------------------------------------
Magnitude (a.u.)       :      0.47751
Magnitude (Debye)      :      1.21374

Rotational constants in cm-1:    10.035954     8.721294     4.666277
Rotational constants in MHz : 300870.339722 261457.818018 139891.452077

                             ****ORCA TERMINATED NORMALLY****
TOTAL RUN TIME: 0 days 0 hours 0 minutes 36 seconds 215 msec
