                         Program Version 4.2.1 -  RELEASE  -
|  1> # hydrogen_sulfide CCSD/aug-cc-pVTZ SPE
|  2>
|  3> ! CCSD aug-cc-pVTZ TightSCF PAL8
|  4> %maxcore 1000
|  5>
|  6> * xyzfile 0 1 hydrogen_sulfide_MP2_aug-cc-pVTZ_OPT.xyz
|  7>
|  8>
|  9>                          ****END OF INPUT****

CARTESIAN COORDINATES (ANGSTROEM)
---------------------------------
  S     -0.054329   -0.076835    0.000000
  H     -0.305859    1.235567    0.000000
  H      1.266858    0.123488    0.000000

 Total Charge           Charge          ....    0
 Multiplicity           Mult            ....    1
 Number of Electrons    NEL             ....   18
 Basis Dimension        Dim             ....   96

ORBITAL ENERGIES
----------------

  NO   OCC          E(Eh)            E(eV)
   0   2.0000     -91.966695     -2502.5410
   1   2.0000      -8.968916      -244.0566
   2   2.0000      -6.650206      -180.9613
   3   2.0000      -6.649434      -180.9403
   4   2.0000      -6.648133      -180.9049
   5   2.0000      -0.982545       -26.7364
   6   2.0000      -0.590042       -16.0559
   7   2.0000      -0.501792       -13.6544
   8   2.0000      -0.385506       -10.4901
   9   0.0000       0.028791         0.7835
  10   0.0000       0.049400         1.3442
  11   0.0000       0.090570         2.4645
  12   0.0000       0.100236         2.7276
  13   0.0000       0.109137         2.9698

E(0)                                       ...   -398.713870668
E(0)                                       ...   -398.713870668
E(CORR)                                    ...     -0.218398838
E(TOT)                                     ...   -398.932269506

MULLIKEN ATOMIC CHARGES
-----------------------
   0 S :   -0.362675
   1 H :    0.181337
   2 H :    0.181338
Sum of atomic charges:    0.0000000

LOEWDIN ATOMIC CHARGES
----------------------
   0 S :    1.299395
   1 H :   -0.649697
   2 H :   -0.649698

  Mayer bond orders larger than 0.100000
B(  0-S ,  1-H ) :   0.9359 B(  0-S ,  2-H ) :   0.9359

FINAL SINGLE POINT ENERGY      -398.932269505666

DIPOLE MOMENT
-------------
                                X             Y             Z
Electronic contribution:     -0.71925      -1.01718       0.00000
Nuclear contribution   :      0.94507       1.33653       0.00000
                        -----------------------------------------
Total Dipole Moment    :      0.22582       0.31936       0.00000
                        -----------------------------------------
Magnitude (a.u.)       :      0.39113
Magnitude (Debye)      :      0.99417

Rotational constants in cm-1:    10.357175     9.015168     4.819844
Rotational constants in MHz : 310500.288393 270267.946337 144495.291345

                             ****ORCA TERMINATED NORMALLY****
TOTAL RUN TIME: 0 days 0 hours 0 minutes 32 seconds 732 msec
