                         Program Version 4.2.1 -  RELEASE  -
|  1> # hydrogen_sulfide OPT with B3LYP/cc-pVTZ
|  2>
|  3> ! B3LYP cc-pVTZ TightSCF Opt PAL8
|  4> %maxcore 1000
|  5>
|  6> * xyzfile 0 1 hydrogen_sulfide_B3LYP_cc-pVDZ_OPT.xyz
|  7>
|  8>
|  9>                          ****END OF INPUT****
 Total Charge           Charge          ....    0
 Multiplicity           Mult            ....    1
 Number of Electrons    NEL             ....   18
FINAL SINGLE POINT ENERGY      -399.362525616173
FINAL SINGLE POINT ENERGY      -399.362667907185
FINAL SINGLE POINT ENERGY      -399.362682414957
                    ***********************HURRAY********************

CARTESIAN COORDINATES (ANGSTROEM)
---------------------------------
  S     -0.055870   -0.078797    0.000000
  H     -0.312146    1.241465    0.000000
  H      1.274687    0.119552    0.000000

 Multiplicity           Mult            ....    1
 Number of Electrons    NEL             ....   18
 Basis Dimension        Dim             ....   62

ORBITAL ENERGIES
----------------

  NO   OCC          E(Eh)            E(eV)
   0   2.0000     -88.891796     -2418.8687
   1   2.0000      -7.945561      -216.2097
   2   2.0000      -5.909729      -160.8119
   3   2.0000      -5.906689      -160.7292
   4   2.0000      -5.900441      -160.5592
   5   2.0000      -0.741747       -20.1840
   6   2.0000      -0.444049       -12.0832
   7   2.0000      -0.367156        -9.9908
   8   2.0000      -0.262307        -7.1377
   9   0.0000       0.016029         0.4362
  10   0.0000       0.016948         0.4612
  11   0.0000       0.181628         4.9424
  12   0.0000       0.219916         5.9842
  13   0.0000       0.286808         7.8045

MULLIKEN ATOMIC CHARGES
-----------------------
   0 S :   -0.195146
   1 H :    0.096416
   2 H :    0.098730
Sum of atomic charges:    0.0000000

LOEWDIN ATOMIC CHARGES
----------------------
   0 S :    0.278968
   1 H :   -0.139405
   2 H :   -0.139563

  Mayer bond orders larger than 0.100000
B(  0-S ,  1-H ) :   1.0176 B(  0-S ,  2-H ) :   1.0180

FINAL SINGLE POINT ENERGY      -399.362682563180

DIPOLE MOMENT
-------------
                                X             Y             Z
Electronic contribution:     -0.70136      -0.99165      -0.00000
Nuclear contribution   :      0.94916       1.34174       0.00000
                        -----------------------------------------
Total Dipole Moment    :      0.24780       0.35009      -0.00000
                        -----------------------------------------
Magnitude (a.u.)       :      0.42892
Magnitude (Debye)      :      1.09022

Rotational constants in cm-1:    10.274075     8.856266     4.756316
Rotational constants in MHz : 308009.030306 265504.168051 142590.757419

                             ****ORCA TERMINATED NORMALLY****
TOTAL RUN TIME: 0 days 0 hours 0 minutes 24 seconds 691 msec
