                         Program Version 4.2.1 -  RELEASE  -
|  1> # phosphine DLPNO-CCSD/aug-cc-pVTZ SPE
|  2>
|  3> ! DLPNO-CCSD aug-cc-pVTZ aug-cc-pVTZ/C TightSCF PAL8
|  4> %maxcore 1000
|  5>
|  6> * xyzfile 0 1 phosphine_MP2_aug-cc-pVTZ_OPT.xyz
|  7>
|  8>
|  9>                          ****END OF INPUT****

CARTESIAN COORDINATES (ANGSTROEM)
---------------------------------
  P     -0.089738   -0.126745    0.219710
  H     -0.396186    1.223529   -0.059443
  H     -0.396304   -0.560508   -1.089084
  H      1.285558    0.034114   -0.059153

 Total Charge           Charge          ....    0
 Multiplicity           Mult            ....    1
 Number of Electrons    NEL             ....   18
 Basis Dimension        Dim             ....  119

ORBITAL ENERGIES
----------------

  NO   OCC          E(Eh)            E(eV)
   0   2.0000     -79.944796     -2175.4085
   1   2.0000      -7.487933      -203.7570
   2   2.0000      -5.381361      -146.4343
   3   2.0000      -5.381361      -146.4343
   4   2.0000      -5.380454      -146.4096
   5   2.0000      -0.856750       -23.3134
   6   2.0000      -0.522614       -14.2210
   7   2.0000      -0.522612       -14.2210
   8   2.0000      -0.387598       -10.5471
   9   0.0000       0.029281         0.7968
  10   0.0000       0.053603         1.4586
  11   0.0000       0.053603         1.4586
  12   0.0000       0.081946         2.2299
  13   0.0000       0.090625         2.4660

E(0)                                       ...   -342.487882221
E(0)                                       ...   -342.487882221
E(CORR)(strong-pairs)                      ...     -0.201297463
E(CORR)(weak-pairs)                        ...     -0.000117691
E(CORR)(corrected)                         ...     -0.201415154
E(TOT)                                     ...   -342.689297375

MULLIKEN ATOMIC CHARGES
-----------------------
   0 P :   -0.341919
   1 H :    0.113973
   2 H :    0.113973
   3 H :    0.113973
Sum of atomic charges:   -0.0000000

LOEWDIN ATOMIC CHARGES
----------------------
   0 P :    1.318014
   1 H :   -0.439338
   2 H :   -0.439338
   3 H :   -0.439338

  Mayer bond orders larger than 0.100000
B(  0-P ,  1-H ) :   0.9075 B(  0-P ,  2-H ) :   0.9075 B(  0-P ,  3-H ) :   0.9075

FINAL SINGLE POINT ENERGY      -342.689297374987

DIPOLE MOMENT
-------------
                                X             Y             Z
Electronic contribution:     -0.58631      -0.82867       1.43587
Nuclear contribution   :      0.67174       0.94940      -1.64507
                        -----------------------------------------
Total Dipole Moment    :      0.08542       0.12073      -0.20920
                        -----------------------------------------
Magnitude (a.u.)       :      0.25620
Magnitude (Debye)      :      0.65121

Rotational constants in cm-1:     4.509278     4.509246     3.941543
Rotational constants in MHz : 135184.748469 135183.795210 118164.483428

                             ****ORCA TERMINATED NORMALLY****
TOTAL RUN TIME: 0 days 0 hours 0 minutes 53 seconds 970 msec
