                         Program Version 4.2.1 -  RELEASE  -
|  1> # phosphine OPT with B3LYP/cc-pVTZ
|  2>
|  3> ! B3LYP cc-pVTZ TightSCF Opt PAL8
|  4> %maxcore 1000
|  5>
|  6> * xyzfile 0 1 phosphine_B3LYP_cc-pVDZ_OPT.xyz
|  7>
|  8>
|  9>                          ****END OF INPUT****
 Total Charge           Charge          ....    0
 Multiplicity           Mult            ....    1
 Number of Electrons    NEL             ....   18
FINAL SINGLE POINT ENERGY      -343.111946444317
FINAL SINGLE POINT ENERGY      -343.112128659091
FINAL SINGLE POINT ENERGY      -343.112167590382
FINAL SINGLE POINT ENERGY      -343.112168842402
FINAL SINGLE POINT ENERGY      -343.112169674072
                    ***********************HURRAY********************

CARTESIAN COORDINATES (ANGSTROEM)
---------------------------------
  P     -0.092217   -0.129866    0.225015
  H     -0.397881    1.228564   -0.059884
  H     -0.397845   -0.562574   -1.093513
  H      1.291273    0.034266   -0.059588

 Multiplicity           Mult            ....    1
 Number of Electrons    NEL             ....   18
 Basis Dimension        Dim             ....   76

ORBITAL ENERGIES
----------------

  NO   OCC          E(Eh)            E(eV)
   0   2.0000     -77.084564     -2097.5776
   1   2.0000      -6.549788      -178.2288
   2   2.0000      -4.711567      -128.2082
   3   2.0000      -4.711543      -128.2076
   4   2.0000      -4.707511      -128.0979
   5   2.0000      -0.644209       -17.5298
   6   2.0000      -0.384131       -10.4527
   7   2.0000      -0.384050       -10.4505
   8   2.0000      -0.276959        -7.5364
   9   0.0000       0.024935         0.6785
  10   0.0000       0.026052         0.7089
  11   0.0000       0.032528         0.8851
  12   0.0000       0.187042         5.0897
  13   0.0000       0.189440         5.1549

MULLIKEN ATOMIC CHARGES
-----------------------
   0 P :   -0.071811
   1 H :    0.022460
   2 H :    0.017994
   3 H :    0.031357
Sum of atomic charges:    0.0000000

LOEWDIN ATOMIC CHARGES
----------------------
   0 P :    0.338239
   1 H :   -0.112848
   2 H :   -0.112906
   3 H :   -0.112486

  Mayer bond orders larger than 0.100000
B(  0-P ,  1-H ) :   0.9876 B(  0-P ,  2-H ) :   0.9848 B(  0-P ,  3-H ) :   0.9889

FINAL SINGLE POINT ENERGY      -343.112169674818

DIPOLE MOMENT
-------------
                                X             Y             Z
Electronic contribution:     -0.60058      -0.84141       1.45837
Nuclear contribution   :      0.68048       0.96040      -1.66377
                        -----------------------------------------
Total Dipole Moment    :      0.07989       0.11899      -0.20540
                        -----------------------------------------
Magnitude (a.u.)       :      0.25046
Magnitude (Debye)      :      0.63661

Rotational constants in cm-1:     4.444842     4.442770     3.909116
Rotational constants in MHz : 133253.010881 133190.902992 117192.347164

                             ****ORCA TERMINATED NORMALLY****
TOTAL RUN TIME: 0 days 0 hours 0 minutes 32 seconds 639 msec
