                         Program Version 4.2.1 -  RELEASE  -
|  1> # phosphine OPT with B3LYP/cc-pVDZ
|  2>
|  3> ! B3LYP cc-pVDZ TightSCF Opt PAL8
|  4> %maxcore 1000
|  5>
|  6> * xyzfile 0 1 phosphine.xyz
|  7>
|  8>
|  9>                          ****END OF INPUT****
 Total Charge           Charge          ....    0
 Multiplicity           Mult            ....    1
 Number of Electrons    NEL             ....   18
FINAL SINGLE POINT ENERGY      -343.044884099871
FINAL SINGLE POINT ENERGY      -343.076964516814
FINAL SINGLE POINT ENERGY      -343.090244592794
FINAL SINGLE POINT ENERGY      -343.092223922575
FINAL SINGLE POINT ENERGY      -343.092289579330
FINAL SINGLE POINT ENERGY      -343.092293223708
FINAL SINGLE POINT ENERGY      -343.092294129344
                    ***********************HURRAY********************

CARTESIAN COORDINATES (ANGSTROEM)
---------------------------------
  P     -0.095429   -0.134476    0.233118
  H     -0.401053    1.237229   -0.060199
  H     -0.400819   -0.566584   -1.101115
  H      1.300630    0.034220   -0.059774

 Multiplicity           Mult            ....    1
 Number of Electrons    NEL             ....   18
 Basis Dimension        Dim             ....   33

ORBITAL ENERGIES
----------------

  NO   OCC          E(Eh)            E(eV)
   0   2.0000     -77.084323     -2097.5711
   1   2.0000      -6.554538      -178.3580
   2   2.0000      -4.716219      -128.3348
   3   2.0000      -4.716195      -128.3342
   4   2.0000      -4.712057      -128.2216
   5   2.0000      -0.639709       -17.4074
   6   2.0000      -0.377889       -10.2829
   7   2.0000      -0.377739       -10.2788
   8   2.0000      -0.273199        -7.4341
   9   0.0000       0.035926         0.9776
  10   0.0000       0.036577         0.9953
  11   0.0000       0.052953         1.4409
  12   0.0000       0.306680         8.3452
  13   0.0000       0.307548         8.3688

MULLIKEN ATOMIC CHARGES
-----------------------
   0 P :    0.006896
   1 H :   -0.002562
   2 H :   -0.001840
   3 H :   -0.002495
Sum of atomic charges:   -0.0000000

LOEWDIN ATOMIC CHARGES
----------------------
   0 P :    0.106862
   1 H :   -0.035639
   2 H :   -0.035144
   3 H :   -0.036079

  Mayer bond orders larger than 0.100000
B(  0-P ,  1-H ) :   0.9803 B(  0-P ,  2-H ) :   0.9801 B(  0-P ,  3-H ) :   0.9802

FINAL SINGLE POINT ENERGY      -343.092294146720

DIPOLE MOMENT
-------------
                                X             Y             Z
Electronic contribution:     -0.60116      -0.84384       1.46269
Nuclear contribution   :      0.69180       0.97665      -1.69233
                        -----------------------------------------
Total Dipole Moment    :      0.09064       0.13281      -0.22965
                        -----------------------------------------
Magnitude (a.u.)       :      0.28034
Magnitude (Debye)      :      0.71257

Rotational constants in cm-1:     4.345405     4.341685     3.853276
Rotational constants in MHz : 130271.958649 130160.455818 115518.310724

                             ****ORCA TERMINATED NORMALLY****
TOTAL RUN TIME: 0 days 0 hours 0 minutes 41 seconds 439 msec
